 Entering Gaussian System, Link 0=g09
 Initial command:
 /share/apps//g09/l1.exe /state/partition1//66002.1.mono/Gau-2966.inp -scrdir=/state/partition1//66002.1.mono/
 Entering Link 1 = /share/apps//g09/l1.exe PID=      2967.
  
 Copyright (c) 1988,1990,1992,1993,1995,1998,2003,2009,2011,
            Gaussian, Inc.  All Rights Reserved.
  
 This is part of the Gaussian(R) 09 program.  It is based on
 the Gaussian(R) 03 system (copyright 2003, Gaussian, Inc.),
 the Gaussian(R) 98 system (copyright 1998, Gaussian, Inc.),
 the Gaussian(R) 94 system (copyright 1995, Gaussian, Inc.),
 the Gaussian 92(TM) system (copyright 1992, Gaussian, Inc.),
 the Gaussian 90(TM) system (copyright 1990, Gaussian, Inc.),
 the Gaussian 88(TM) system (copyright 1988, Gaussian, Inc.),
 the Gaussian 86(TM) system (copyright 1986, Carnegie Mellon
 University), and the Gaussian 82(TM) system (copyright 1983,
 Carnegie Mellon University). Gaussian is a federally registered
 trademark of Gaussian, Inc.
  
 This software contains proprietary and confidential information,
 including trade secrets, belonging to Gaussian, Inc.
  
 This software is provided under written license and may be
 used, copied, transmitted, or stored only in accord with that
 written license.
  
 The following legend is applicable only to US Government
 contracts under FAR:
  
                    RESTRICTED RIGHTS LEGEND
  
 Use, reproduction and disclosure by the US Government is
 subject to restrictions as set forth in subparagraphs (a)
 and (c) of the Commercial Computer Software - Restricted
 Rights clause in FAR 52.227-19.
  
 Gaussian, Inc.
 340 Quinnipiac St., Bldg. 40, Wallingford CT 06492
  
  
 ---------------------------------------------------------------
 Warning -- This program may not be used in any manner that
 competes with the business of Gaussian, Inc. or will provide
 assistance to any competitor of Gaussian, Inc.  The licensee
 of this program is prohibited from giving any competitor of
 Gaussian, Inc. access to this program.  By using this program,
 the user acknowledges that Gaussian, Inc. is engaged in the
 business of creating and licensing software in the field of
 computational chemistry and represents and warrants to the
 licensee that it is not a competitor of Gaussian, Inc. and that
 it will not use this program in any manner prohibited above.
 ---------------------------------------------------------------
  

 Cite this work as:
 Gaussian 09, Revision C.01,
 M. J. Frisch, G. W. Trucks, H. B. Schlegel, G. E. Scuseria, 
 M. A. Robb, J. R. Cheeseman, G. Scalmani, V. Barone, B. Mennucci, 
 G. A. Petersson, H. Nakatsuji, M. Caricato, X. Li, H. P. Hratchian, 
 A. F. Izmaylov, J. Bloino, G. Zheng, J. L. Sonnenberg, M. Hada, 
 M. Ehara, K. Toyota, R. Fukuda, J. Hasegawa, M. Ishida, T. Nakajima, 
 Y. Honda, O. Kitao, H. Nakai, T. Vreven, J. A. Montgomery, Jr., 
 J. E. Peralta, F. Ogliaro, M. Bearpark, J. J. Heyd, E. Brothers, 
 K. N. Kudin, V. N. Staroverov, T. Keith, R. Kobayashi, J. Normand, 
 K. Raghavachari, A. Rendell, J. C. Burant, S. S. Iyengar, J. Tomasi, 
 M. Cossi, N. Rega, J. M. Millam, M. Klene, J. E. Knox, J. B. Cross, 
 V. Bakken, C. Adamo, J. Jaramillo, R. Gomperts, R. E. Stratmann, 
 O. Yazyev, A. J. Austin, R. Cammi, C. Pomelli, J. W. Ochterski, 
 R. L. Martin, K. Morokuma, V. G. Zakrzewski, G. A. Voth, 
 P. Salvador, J. J. Dannenberg, S. Dapprich, A. D. Daniels, 
 O. Farkas, J. B. Foresman, J. V. Ortiz, J. Cioslowski, 
 and D. J. Fox, Gaussian, Inc., Wallingford CT, 2010.
 
 ******************************************
 Gaussian 09:  EM64L-G09RevC.01 23-Sep-2011
                26-Jul-2015 
 ******************************************
 %chk=30_opt.chk
 -----------------------------------------------
 # opt=tight freq b3lyp/6-311g geom=connectivity
 -----------------------------------------------
 1/7=10,14=-1,18=20,19=15,26=3,38=1,57=2/1,3;
 2/9=110,12=2,17=6,18=5,40=1/2;
 3/5=4,6=6,11=2,16=1,25=1,30=1,71=1,74=-5/1,2,3;
 4//1;
 5/5=2,38=5/2;
 6/7=2,8=2,9=2,10=2,28=1/1;
 7//1,2,3,16;
 1/7=10,14=-1,18=20,19=15/3(2);
 2/9=110/2;
 99//99;
 2/9=110/2;
 3/5=4,6=6,11=2,16=1,25=1,30=1,71=1,74=-5/1,2,3;
 4/5=5,16=3/1;
 5/5=2,38=5/2;
 7//1,2,3,16;
 1/7=10,14=-1,18=20,19=15/3(-5);
 2/9=110/2;
 6/7=2,8=2,9=2,10=2,19=2,28=1/1;
 99/9=1/99;
 ------
 pCFHCl
 ------
 Charge =  0 Multiplicity = 1
 Symbolic Z-Matrix:
 Cl                    3.2109    4.6778    10.9878 
 O                     4.0116    4.5039    1.0189 
 H                     4.1385    4.7523    0.2264 
 O                     5.0454    6.4458    1.4774 
 N                     3.7479    4.3652    7.3754 
 H                     3.5674    3.5492    7.6521 
 N                     4.6751    5.021     8.2648 
 H                     5.5251    4.7752    8.0526 
 H                     4.4951    4.7789    9.1225 
 H                     4.59      5.923     8.1803 
 C                     4.4795    5.4091    1.8411 
 C                     4.304     5.1045    3.2787 
 C                     3.6871    3.9264    3.7134 
 H                     3.3705    3.2935    3.0802 
 C                     3.5394    3.6859    5.0662 
 H                     3.1201    2.8869    5.3632 
 C                     4.0074    4.6176    5.9982 
 C                     4.6353    5.7906    5.5648 
 H                     4.9634    6.4216    6.1952 
 C                     4.772     6.0194    4.2105 
 H                     5.1936    6.8165    3.9121 
 

 GradGradGradGradGradGradGradGradGradGradGradGradGradGradGradGradGradGrad
 Berny optimization.
 Initialization pass.
                           ----------------------------
                           !    Initial Parameters    !
                           ! (Angstroms and Degrees)  !
 --------------------------                            --------------------------
 ! Name  Definition              Value          Derivative Info.                !
 --------------------------------------------------------------------------------
 ! R1    R(1,9)                  2.2669         estimate D2E/DX2                !
 ! R2    R(2,3)                  0.8402         estimate D2E/DX2                !
 ! R3    R(2,11)                 1.3093         estimate D2E/DX2                !
 ! R4    R(4,11)                 1.2358         estimate D2E/DX2                !
 ! R5    R(5,6)                  0.8803         estimate D2E/DX2                !
 ! R6    R(5,7)                  1.4425         estimate D2E/DX2                !
 ! R7    R(5,17)                 1.424          estimate D2E/DX2                !
 ! R8    R(7,8)                  0.9099         estimate D2E/DX2                !
 ! R9    R(7,9)                  0.9092         estimate D2E/DX2                !
 ! R10   R(7,10)                 0.9099         estimate D2E/DX2                !
 ! R11   R(11,12)                1.48           estimate D2E/DX2                !
 ! R12   R(12,13)                1.3991         estimate D2E/DX2                !
 ! R13   R(12,20)                1.3872         estimate D2E/DX2                !
 ! R14   R(13,14)                0.9496         estimate D2E/DX2                !
 ! R15   R(13,15)                1.3819         estimate D2E/DX2                !
 ! R16   R(15,16)                0.95           estimate D2E/DX2                !
 ! R17   R(15,17)                1.3985         estimate D2E/DX2                !
 ! R18   R(17,18)                1.3993         estimate D2E/DX2                !
 ! R19   R(18,19)                0.9504         estimate D2E/DX2                !
 ! R20   R(18,20)                1.3803         estimate D2E/DX2                !
 ! R21   R(20,21)                0.9498         estimate D2E/DX2                !
 ! A1    A(3,2,11)             109.5091         estimate D2E/DX2                !
 ! A2    A(6,5,7)              111.0632         estimate D2E/DX2                !
 ! A3    A(6,5,17)             120.3741         estimate D2E/DX2                !
 ! A4    A(7,5,17)             113.4903         estimate D2E/DX2                !
 ! A5    A(5,7,8)              109.5025         estimate D2E/DX2                !
 ! A6    A(5,7,9)              109.471          estimate D2E/DX2                !
 ! A7    A(5,7,10)             109.4686         estimate D2E/DX2                !
 ! A8    A(8,7,9)              109.4512         estimate D2E/DX2                !
 ! A9    A(8,7,10)             109.4805         estimate D2E/DX2                !
 ! A10   A(9,7,10)             109.4534         estimate D2E/DX2                !
 ! A11   A(1,9,7)              154.1925         estimate D2E/DX2                !
 ! A12   A(2,11,4)             123.9719         estimate D2E/DX2                !
 ! A13   A(2,11,12)            115.1707         estimate D2E/DX2                !
 ! A14   A(4,11,12)            120.8524         estimate D2E/DX2                !
 ! A15   A(11,12,13)           121.8303         estimate D2E/DX2                !
 ! A16   A(11,12,20)           118.4727         estimate D2E/DX2                !
 ! A17   A(13,12,20)           119.6968         estimate D2E/DX2                !
 ! A18   A(12,13,14)           120.0693         estimate D2E/DX2                !
 ! A19   A(12,13,15)           119.8561         estimate D2E/DX2                !
 ! A20   A(14,13,15)           120.0746         estimate D2E/DX2                !
 ! A21   A(13,15,16)           119.974          estimate D2E/DX2                !
 ! A22   A(13,15,17)           120.0452         estimate D2E/DX2                !
 ! A23   A(16,15,17)           119.9807         estimate D2E/DX2                !
 ! A24   A(5,17,15)            117.7409         estimate D2E/DX2                !
 ! A25   A(5,17,18)            121.9994         estimate D2E/DX2                !
 ! A26   A(15,17,18)           120.1481         estimate D2E/DX2                !
 ! A27   A(17,18,19)           120.4005         estimate D2E/DX2                !
 ! A28   A(17,18,20)           119.163          estimate D2E/DX2                !
 ! A29   A(19,18,20)           120.4365         estimate D2E/DX2                !
 ! A30   A(12,20,18)           121.0866         estimate D2E/DX2                !
 ! A31   A(12,20,21)           119.4858         estimate D2E/DX2                !
 ! A32   A(18,20,21)           119.4276         estimate D2E/DX2                !
 ! D1    D(3,2,11,4)            -1.5877         estimate D2E/DX2                !
 ! D2    D(3,2,11,12)          179.2177         estimate D2E/DX2                !
 ! D3    D(6,5,7,8)             83.1088         estimate D2E/DX2                !
 ! D4    D(6,5,7,9)            -36.8857         estimate D2E/DX2                !
 ! D5    D(6,5,7,10)          -156.8621         estimate D2E/DX2                !
 ! D6    D(17,5,7,8)           -56.1961         estimate D2E/DX2                !
 ! D7    D(17,5,7,9)          -176.1907         estimate D2E/DX2                !
 ! D8    D(17,5,7,10)           63.8329         estimate D2E/DX2                !
 ! D9    D(6,5,17,15)           21.1703         estimate D2E/DX2                !
 ! D10   D(6,5,17,18)         -162.6659         estimate D2E/DX2                !
 ! D11   D(7,5,17,15)          156.3189         estimate D2E/DX2                !
 ! D12   D(7,5,17,18)          -27.5173         estimate D2E/DX2                !
 ! D13   D(5,7,9,1)            -64.4307         estimate D2E/DX2                !
 ! D14   D(8,7,9,1)            175.5433         estimate D2E/DX2                !
 ! D15   D(10,7,9,1)            55.555          estimate D2E/DX2                !
 ! D16   D(2,11,12,13)           0.3373         estimate D2E/DX2                !
 ! D17   D(2,11,12,20)        -179.8398         estimate D2E/DX2                !
 ! D18   D(4,11,12,13)        -178.8847         estimate D2E/DX2                !
 ! D19   D(4,11,12,20)           0.9382         estimate D2E/DX2                !
 ! D20   D(11,12,13,14)          0.269          estimate D2E/DX2                !
 ! D21   D(11,12,13,15)       -179.7241         estimate D2E/DX2                !
 ! D22   D(20,12,13,14)       -179.5518         estimate D2E/DX2                !
 ! D23   D(20,12,13,15)          0.4551         estimate D2E/DX2                !
 ! D24   D(11,12,20,18)        179.9235         estimate D2E/DX2                !
 ! D25   D(11,12,20,21)         -0.0831         estimate D2E/DX2                !
 ! D26   D(13,12,20,18)         -0.2498         estimate D2E/DX2                !
 ! D27   D(13,12,20,21)        179.7437         estimate D2E/DX2                !
 ! D28   D(12,13,15,16)        179.9459         estimate D2E/DX2                !
 ! D29   D(12,13,15,17)         -0.0879         estimate D2E/DX2                !
 ! D30   D(14,13,15,16)         -0.0471         estimate D2E/DX2                !
 ! D31   D(14,13,15,17)        179.919          estimate D2E/DX2                !
 ! D32   D(13,15,17,5)         175.7516         estimate D2E/DX2                !
 ! D33   D(13,15,17,18)         -0.4863         estimate D2E/DX2                !
 ! D34   D(16,15,17,5)          -4.2822         estimate D2E/DX2                !
 ! D35   D(16,15,17,18)        179.4799         estimate D2E/DX2                !
 ! D36   D(5,17,18,19)           4.6145         estimate D2E/DX2                !
 ! D37   D(5,17,18,20)        -175.3857         estimate D2E/DX2                !
 ! D38   D(15,17,18,19)       -179.3121         estimate D2E/DX2                !
 ! D39   D(15,17,18,20)          0.6877         estimate D2E/DX2                !
 ! D40   D(17,18,20,12)         -0.3201         estimate D2E/DX2                !
 ! D41   D(17,18,20,21)        179.6864         estimate D2E/DX2                !
 ! D42   D(19,18,20,12)        179.6797         estimate D2E/DX2                !
 ! D43   D(19,18,20,21)         -0.3138         estimate D2E/DX2                !
 --------------------------------------------------------------------------------
 Trust Radius=3.00D-01 FncErr=1.00D-07 GrdErr=1.00D-06
 Number of steps in this run=    106 maximum allowed number of steps=    126.
 GradGradGradGradGradGradGradGradGradGradGradGradGradGradGradGradGradGrad

                          Input orientation:                          
 ---------------------------------------------------------------------
 Center     Atomic      Atomic             Coordinates (Angstroms)
 Number     Number       Type             X           Y           Z
 ---------------------------------------------------------------------
      1         17           0        3.210900    4.677800   10.987800
      2          8           0        4.011600    4.503900    1.018900
      3          1           0        4.138500    4.752300    0.226400
      4          8           0        5.045400    6.445800    1.477400
      5          7           0        3.747900    4.365200    7.375400
      6          1           0        3.567400    3.549200    7.652100
      7          7           0        4.675100    5.021000    8.264800
      8          1           0        5.525100    4.775200    8.052600
      9          1           0        4.495100    4.778900    9.122500
     10          1           0        4.590000    5.923000    8.180300
     11          6           0        4.479500    5.409100    1.841100
     12          6           0        4.304000    5.104500    3.278700
     13          6           0        3.687100    3.926400    3.713400
     14          1           0        3.370500    3.293500    3.080200
     15          6           0        3.539400    3.685900    5.066200
     16          1           0        3.120100    2.886900    5.363200
     17          6           0        4.007400    4.617600    5.998200
     18          6           0        4.635300    5.790600    5.564800
     19          1           0        4.963400    6.421600    6.195200
     20          6           0        4.772000    6.019400    4.210500
     21          1           0        5.193600    6.816500    3.912100
 ---------------------------------------------------------------------
                    Distance matrix (angstroms):
                    1          2          3          4          5
     1  Cl   0.000000
     2  O   10.002516   0.000000
     3  H   10.801561   0.840156   0.000000
     4  O    9.845757   2.247207   2.292468   0.000000
     5  N    3.665450   6.363479   7.170120   6.387394   0.000000
     6  H    3.539453   6.716257   7.544178   6.978660   0.880340
     7  N    3.110691   7.294566   8.060770   6.945212   1.442500
     8  H    3.739038   7.199807   7.948119   6.801049   1.945544
     9  H    2.266878   8.122668   8.903284   7.844038   1.944689
    10  H    3.366674   7.323527   8.052262   6.738663   1.945183
    11  C    9.263167   1.309324   1.776210   1.235827   5.679211
    12  C    7.797895   2.356462   3.077007   2.365046   4.199853
    13  C    7.328592   2.774732   3.611792   3.632086   3.688697
    14  H    8.029439   2.474881   3.295769   3.912960   4.442940
    15  C    6.013079   4.156048   4.991973   4.771223   2.416056
    16  H    5.903532   4.720424   5.559098   5.609990   2.574578
    17  C    5.053132   4.980600   5.774860   4.985719   1.423982
    18  C    5.716307   4.765481   5.461080   4.159845   2.469315
    19  H    5.392690   5.601569   6.252487   4.718575   2.664412
    20  C    7.082988   3.614036   4.228465   2.779640   3.715071
    21  H    7.653148   3.887911   4.354141   2.467214   4.482563
                    6          7          8          9         10
     6  H    0.000000
     7  N    1.941287   0.000000
     8  H    2.344369   0.909916   0.000000
     9  H    2.129522   0.909209   1.485126   0.000000
    10  H    2.638112   0.909938   1.485989   1.485164   0.000000
    11  C    6.169188   6.438385   6.330706   7.308637   6.360956
    12  C    4.699805   5.000588   4.938587   5.855983   4.977692
    13  C    3.958531   4.784301   4.788253   5.535159   4.975423
    14  H    4.583276   5.618391   5.618051   6.323016   5.866214
    15  C    2.589662   3.647376   3.748088   4.308315   3.975675
    16  H    2.424414   3.923224   4.072171   4.427485   4.394834
    17  C    2.017539   2.397088   2.559064   3.166247   2.608650
    18  C    3.243625   2.807823   2.830535   3.701408   2.619241
    19  H    3.510279   2.515560   2.544813   3.389226   2.080541
    20  C    4.404266   4.176546   4.108154   5.073781   3.975139
    21  H    5.225646   4.736946   4.628233   5.638083   4.402296
                   11         12         13         14         15
    11  C    0.000000
    12  C    1.479958   0.000000
    13  C    2.516308   1.399089   0.000000
    14  H    2.690913   2.047082   0.949600   0.000000
    15  C    3.775510   2.406698   1.381927   2.031428   0.000000
    16  H    4.540336   3.265656   2.030736   2.332405   0.949959
    17  C    4.258031   2.778619   2.408456   3.267049   1.398468
    18  C    3.746433   2.409719   2.793207   3.742788   2.424739
    19  H    4.496388   3.267343   3.743567   4.693140   3.284276
    20  C    2.464159   1.387198   2.409308   3.266850   2.774301
    21  H    2.603796   2.030647   3.265226   4.053058   3.724108
                   16         17         18         19         20
    16  H    0.000000
    17  C    2.045935   0.000000
    18  C    3.281455   1.399294   0.000000
    19  H    4.072356   2.051137   0.950376   0.000000
    20  C    3.724251   2.396983   1.380277   2.034068   0.000000
    21  H    4.674061   3.254849   2.023756   2.328408   0.949820
                   21
    21  H    0.000000
 Stoichiometry    C7H9ClN2O2
 Framework group  C1[X(C7H9ClN2O2)]
 Deg. of freedom    57
 Full point group                 C1      NOp   1
 Largest Abelian subgroup         C1      NOp   1
 Largest concise Abelian subgroup C1      NOp   1
                         Standard orientation:                         
 ---------------------------------------------------------------------
 Center     Atomic      Atomic             Coordinates (Angstroms)
 Number     Number       Type             X           Y           Z
 ---------------------------------------------------------------------
      1         17           0        5.482764    0.054890   -0.340579
      2          8           0       -4.479109    0.922190   -0.097264
      3          1           0       -5.295834    0.734717   -0.157897
      4          8           0       -4.266138   -1.313364   -0.180220
      5          7           0        1.864775    0.458448    0.086990
      6          1           0        2.214757    1.217020    0.364622
      7          7           0        2.605808   -0.670604    0.593861
      8          1           0        2.324544   -0.864728    1.437159
      9          1           0        3.492273   -0.469097    0.609220
     10          1           0        2.467985   -1.390561    0.054738
     11          6           0       -3.774654   -0.181324   -0.115448
     12          6           0       -2.308921    0.006163   -0.033282
     13          6           0       -1.731880    1.277000    0.063919
     14          1           0       -2.283391    2.049806    0.082563
     15          6           0       -0.357620    1.405130    0.132589
     16          1           0        0.035994    2.267239    0.197847
     17          6           0        0.453925    0.266516    0.106790
     18          6           0       -0.122607   -1.005644    0.021700
     19          1           0        0.425069   -1.782305    0.013740
     20          6           0       -1.496405   -1.118042   -0.050494
     21          1           0       -1.891514   -1.979526   -0.112881
 ---------------------------------------------------------------------
 Rotational constants (GHZ):      3.2264634      0.2309692      0.2179516
 Standard basis: 6-311G (5D, 7F)
 There are   191 symmetry adapted basis functions of A   symmetry.
 Integral buffers will be    131072 words long.
 Raffenetti 2 integral format.
 Two-electron integral symmetry is turned on.
   191 basis functions,   374 primitive gaussians,   191 cartesian basis functions
    49 alpha electrons       49 beta electrons
       nuclear repulsion energy       722.6378344406 Hartrees.
 NAtoms=   21 NActive=   21 NUniq=   21 SFac= 1.00D+00 NAtFMM=   60 NAOKFM=F Big=F
 One-electron integrals computed using PRISM.
 NBasis=   191 RedAO= T  NBF=   191
 NBsUse=   191 1.00D-06 NBFU=   191
 Harris functional with IExCor=  402 diagonalized for initial guess.
 ExpMin= 1.03D-01 ExpMax= 1.06D+05 ExpMxC= 3.62D+03 IAcc=2 IRadAn=         4 AccDes= 0.00D+00
 HarFok:  IExCor=  402 AccDes= 0.00D+00 IRadAn=         4 IDoV= 1
 ScaDFX=  1.000000  1.000000  1.000000  1.000000
 FoFCou: FMM=F IPFlag=           0 FMFlag=      100000 FMFlg1=           0
         NFxFlg=           0 DoJE=T BraDBF=F KetDBF=T FulRan=T
         Omega=  0.000000  0.000000  1.000000  0.000000  0.000000 ICntrl=     500 IOpCl=  0
         NMat0=    1 NMatS0=    1 NMatT0=    0 NMatD0=    1 NMtDS0=    0 NMtDT0=    0
         I1Cent=           4 NGrid=           0.
 Petite list used in FoFCou.
 Initial guess orbital symmetries:
       Occupied  (A) (A) (A) (A) (A) (A) (A) (A) (A) (A) (A) (A)
                 (A) (A) (A) (A) (A) (A) (A) (A) (A) (A) (A) (A)
                 (A) (A) (A) (A) (A) (A) (A) (A) (A) (A) (A) (A)
                 (A) (A) (A) (A) (A) (A) (A) (A) (A) (A) (A) (A)
                 (A)
       Virtual   (A) (A) (A) (A) (A) (A) (A) (A) (A) (A) (A) (A)
                 (A) (A) (A) (A) (A) (A) (A) (A) (A) (A) (A) (A)
                 (A) (A) (A) (A) (A) (A) (A) (A) (A) (A) (A) (A)
                 (A) (A) (A) (A) (A) (A) (A) (A) (A) (A) (A) (A)
                 (A) (A) (A) (A) (A) (A) (A) (A) (A) (A) (A) (A)
                 (A) (A) (A) (A) (A) (A) (A) (A) (A) (A) (A) (A)
                 (A) (A) (A) (A) (A) (A) (A) (A) (A) (A) (A) (A)
                 (A) (A) (A) (A) (A) (A) (A) (A) (A) (A) (A) (A)
                 (A) (A) (A) (A) (A) (A) (A) (A) (A) (A) (A) (A)
                 (A) (A) (A) (A) (A) (A) (A) (A) (A) (A) (A) (A)
                 (A) (A) (A) (A) (A) (A) (A) (A) (A) (A) (A) (A)
                 (A) (A) (A) (A) (A) (A) (A) (A) (A) (A)
 The electronic state of the initial guess is 1-A.
 Requested convergence on RMS density matrix=1.00D-08 within 128 cycles.
 Requested convergence on MAX density matrix=1.00D-06.
 Requested convergence on             energy=1.00D-06.
 No special actions if energy rises.
 Integral accuracy reduced to 1.0D-05 until final iterations.
 Initial convergence to 1.0D-05 achieved.  Increase integral accuracy.
 SCF Done:  E(RB3LYP) =  -992.139291430     A.U. after   15 cycles
             Convg  =    0.8073D-08             -V/T =  2.0002

 **********************************************************************

            Population analysis using the SCF density.

 **********************************************************************

 Orbital symmetries:
       Occupied  (A) (A) (A) (A) (A) (A) (A) (A) (A) (A) (A) (A)
                 (A) (A) (A) (A) (A) (A) (A) (A) (A) (A) (A) (A)
                 (A) (A) (A) (A) (A) (A) (A) (A) (A) (A) (A) (A)
                 (A) (A) (A) (A) (A) (A) (A) (A) (A) (A) (A) (A)
                 (A)
       Virtual   (A) (A) (A) (A) (A) (A) (A) (A) (A) (A) (A) (A)
                 (A) (A) (A) (A) (A) (A) (A) (A) (A) (A) (A) (A)
                 (A) (A) (A) (A) (A) (A) (A) (A) (A) (A) (A) (A)
                 (A) (A) (A) (A) (A) (A) (A) (A) (A) (A) (A) (A)
                 (A) (A) (A) (A) (A) (A) (A) (A) (A) (A) (A) (A)
                 (A) (A) (A) (A) (A) (A) (A) (A) (A) (A) (A) (A)
                 (A) (A) (A) (A) (A) (A) (A) (A) (A) (A) (A) (A)
                 (A) (A) (A) (A) (A) (A) (A) (A) (A) (A) (A) (A)
                 (A) (A) (A) (A) (A) (A) (A) (A) (A) (A) (A) (A)
                 (A) (A) (A) (A) (A) (A) (A) (A) (A) (A) (A) (A)
                 (A) (A) (A) (A) (A) (A) (A) (A) (A) (A) (A) (A)
                 (A) (A) (A) (A) (A) (A) (A) (A) (A) (A)
 The electronic state is 1-A.
 Alpha  occ. eigenvalues -- -101.39916 -19.20843 -19.14588 -14.51150 -14.44165
 Alpha  occ. eigenvalues --  -10.35592 -10.29638 -10.23600 -10.22936 -10.22330
 Alpha  occ. eigenvalues --  -10.22267 -10.22259  -9.31237  -7.07193  -7.07004
 Alpha  occ. eigenvalues --   -7.06985  -1.20325  -1.17824  -1.07589  -0.99292
 Alpha  occ. eigenvalues --   -0.92387  -0.83961  -0.82892  -0.75906  -0.72443
 Alpha  occ. eigenvalues --   -0.71686  -0.70600  -0.67343  -0.65320  -0.64739
 Alpha  occ. eigenvalues --   -0.61970  -0.59088  -0.53356  -0.52682  -0.51334
 Alpha  occ. eigenvalues --   -0.50616  -0.50557  -0.47099  -0.45326  -0.43251
 Alpha  occ. eigenvalues --   -0.41643  -0.38651  -0.35741  -0.32036  -0.31535
 Alpha  occ. eigenvalues --   -0.28812  -0.21064  -0.19725  -0.19605
 Alpha virt. eigenvalues --   -0.09255  -0.06620  -0.03371  -0.00441   0.00842
 Alpha virt. eigenvalues --    0.02403   0.02962   0.04315   0.05729   0.07916
 Alpha virt. eigenvalues --    0.10625   0.11445   0.13020   0.14605   0.17004
 Alpha virt. eigenvalues --    0.19207   0.21698   0.22563   0.23562   0.26144
 Alpha virt. eigenvalues --    0.27025   0.28253   0.30190   0.32817   0.33933
 Alpha virt. eigenvalues --    0.34568   0.35743   0.36685   0.36909   0.37512
 Alpha virt. eigenvalues --    0.38949   0.39460   0.40181   0.40597   0.41054
 Alpha virt. eigenvalues --    0.41633   0.42594   0.44653   0.46018   0.47038
 Alpha virt. eigenvalues --    0.47765   0.49804   0.51582   0.52463   0.54819
 Alpha virt. eigenvalues --    0.55804   0.57228   0.58567   0.59345   0.59903
 Alpha virt. eigenvalues --    0.60570   0.60785   0.61813   0.64128   0.65134
 Alpha virt. eigenvalues --    0.65959   0.70051   0.72029   0.74096   0.75086
 Alpha virt. eigenvalues --    0.76001   0.77336   0.78180   0.82086   0.83094
 Alpha virt. eigenvalues --    0.84019   0.86282   0.89894   0.90797   0.91225
 Alpha virt. eigenvalues --    0.93029   0.98452   1.02488   1.04805   1.10390
 Alpha virt. eigenvalues --    1.14812   1.18683   1.22815   1.35403   1.47867
 Alpha virt. eigenvalues --    1.68297   2.09617   2.12487   2.14651   2.18603
 Alpha virt. eigenvalues --    2.22969   2.23993   2.25964   2.30867   2.32713
 Alpha virt. eigenvalues --    2.36877   2.42327   2.44118   2.47412   2.50534
 Alpha virt. eigenvalues --    2.53248   2.55546   2.56865   2.59085   2.67631
 Alpha virt. eigenvalues --    2.68968   2.73844   2.82402   2.85244   2.85696
 Alpha virt. eigenvalues --    2.92623   3.01101   3.05274   3.10600   3.11486
 Alpha virt. eigenvalues --    3.19568   3.20703   3.24466   3.42199   3.50716
 Alpha virt. eigenvalues --    3.59943   3.81281   3.91485   3.99457   4.06690
 Alpha virt. eigenvalues --    4.69812   4.81547   4.83069   4.91003   4.97011
 Alpha virt. eigenvalues --    5.13140   9.56071  23.07335  23.27257  23.33936
 Alpha virt. eigenvalues --   23.38834  23.56774  23.68272  23.82928  25.52257
 Alpha virt. eigenvalues --   25.53267  25.63419  35.18362  35.32759  49.76641
 Alpha virt. eigenvalues --   49.88928 215.49910
          Condensed to atoms (all electrons):
              1          2          3          4          5          6
     1  Cl  17.705520   0.000000   0.000000   0.000000  -0.001722   0.008742
     2  O    0.000000   8.315352   0.258418  -0.122264   0.000000   0.000000
     3  H    0.000000   0.258418   0.353216   0.008107   0.000000   0.000000
     4  O    0.000000  -0.122264   0.008107   7.999376   0.000000   0.000000
     5  N   -0.001722   0.000000   0.000000   0.000000   7.020732   0.339740
     6  H    0.008742   0.000000   0.000000   0.000000   0.339740   0.365404
     7  N   -0.090660   0.000000   0.000000   0.000000   0.130309  -0.041442
     8  H    0.003813   0.000000   0.000000   0.000000  -0.055528  -0.000219
     9  H    0.175919   0.000000   0.000000   0.000000  -0.014980  -0.000558
    10  H    0.005952   0.000000   0.000000   0.000000  -0.030737   0.002695
    11  C    0.000000   0.182753  -0.031508   0.605119  -0.000004   0.000001
    12  C    0.000000  -0.147944   0.019091  -0.165488   0.000313   0.000036
    13  C   -0.000002   0.021046  -0.002616   0.006642   0.006386   0.000218
    14  H    0.000000   0.013973  -0.000653   0.000577  -0.000261  -0.000001
    15  C   -0.000017   0.000102   0.000126  -0.000249  -0.031904  -0.009259
    16  H   -0.000023  -0.000075  -0.000005   0.000000  -0.005356   0.001931
    17  C    0.001095   0.000073  -0.000005   0.000013   0.179967  -0.022313
    18  C   -0.000310  -0.000278   0.000031   0.001312  -0.087744   0.008411
    19  H    0.000120  -0.000003  -0.000001  -0.000112  -0.008686   0.000144
    20  C   -0.000004   0.005656  -0.000168   0.012800   0.006211  -0.000052
    21  H    0.000000   0.001842  -0.000129   0.023005  -0.000190   0.000008
              7          8          9         10         11         12
     1  Cl  -0.090660   0.003813   0.175919   0.005952   0.000000   0.000000
     2  O    0.000000   0.000000   0.000000   0.000000   0.182753  -0.147944
     3  H    0.000000   0.000000   0.000000   0.000000  -0.031508   0.019091
     4  O    0.000000   0.000000   0.000000   0.000000   0.605119  -0.165488
     5  N    0.130309  -0.055528  -0.014980  -0.030737  -0.000004   0.000313
     6  H   -0.041442  -0.000219  -0.000558   0.002695   0.000001   0.000036
     7  N    7.049213   0.284290   0.050581   0.305240   0.000000   0.000011
     8  H    0.284290   0.382496   0.000933  -0.031493   0.000000  -0.000137
     9  H    0.050581   0.000933   0.431601  -0.008257   0.000000   0.000005
    10  H    0.305240  -0.031493  -0.008257   0.323647   0.000003   0.000043
    11  C    0.000000   0.000000   0.000000   0.000003   4.861270  -0.019846
    12  C    0.000011  -0.000137   0.000005   0.000043  -0.019846   5.814018
    13  C   -0.000350   0.000006  -0.000013  -0.000069  -0.013080   0.393952
    14  H    0.000007   0.000003  -0.000001  -0.000001  -0.005967  -0.041643
    15  C    0.004517   0.000643   0.000020   0.000407   0.010446  -0.040779
    16  H   -0.000113   0.000024   0.000045   0.000046  -0.000528   0.006104
    17  C   -0.059782   0.010625   0.003303  -0.006268  -0.000412  -0.039015
    18  C   -0.012590   0.001880  -0.000046   0.004266   0.022569  -0.051116
    19  H    0.006277   0.000812   0.001766   0.003185  -0.000696   0.007124
    20  C   -0.000616  -0.000110  -0.000017  -0.000538  -0.077043   0.502534
    21  H   -0.000020   0.000009  -0.000009   0.000035  -0.008116  -0.046614
             13         14         15         16         17         18
     1  Cl  -0.000002   0.000000  -0.000017  -0.000023   0.001095  -0.000310
     2  O    0.021046   0.013973   0.000102  -0.000075   0.000073  -0.000278
     3  H   -0.002616  -0.000653   0.000126  -0.000005  -0.000005   0.000031
     4  O    0.006642   0.000577  -0.000249   0.000000   0.000013   0.001312
     5  N    0.006386  -0.000261  -0.031904  -0.005356   0.179967  -0.087744
     6  H    0.000218  -0.000001  -0.009259   0.001931  -0.022313   0.008411
     7  N   -0.000350   0.000007   0.004517  -0.000113  -0.059782  -0.012590
     8  H    0.000006   0.000003   0.000643   0.000024   0.010625   0.001880
     9  H   -0.000013  -0.000001   0.000020   0.000045   0.003303  -0.000046
    10  H   -0.000069  -0.000001   0.000407   0.000046  -0.006268   0.004266
    11  C   -0.013080  -0.005967   0.010446  -0.000528  -0.000412   0.022569
    12  C    0.393952  -0.041643  -0.040779   0.006104  -0.039015  -0.051116
    13  C    4.965269   0.386318   0.470319  -0.017537  -0.031753  -0.057142
    14  H    0.386318   0.464565  -0.040438  -0.006365   0.008135  -0.000284
    15  C    0.470319  -0.040438   5.037083   0.384005   0.501213  -0.046627
    16  H   -0.017537  -0.006365   0.384005   0.476461  -0.057024   0.005466
    17  C   -0.031753   0.008135   0.501213  -0.057024   4.960089   0.418374
    18  C   -0.057142  -0.000284  -0.046627   0.005466   0.418374   5.175054
    19  H    0.001581   0.000113   0.001973  -0.000540  -0.079885   0.374120
    20  C   -0.074164   0.007424  -0.051215   0.000351  -0.022434   0.433006
    21  H    0.007259  -0.000551  -0.000058   0.000082   0.007954  -0.039732
             19         20         21
     1  Cl   0.000120  -0.000004   0.000000
     2  O   -0.000003   0.005656   0.001842
     3  H   -0.000001  -0.000168  -0.000129
     4  O   -0.000112   0.012800   0.023005
     5  N   -0.008686   0.006211  -0.000190
     6  H    0.000144  -0.000052   0.000008
     7  N    0.006277  -0.000616  -0.000020
     8  H    0.000812  -0.000110   0.000009
     9  H    0.001766  -0.000017  -0.000009
    10  H    0.003185  -0.000538   0.000035
    11  C   -0.000696  -0.077043  -0.008116
    12  C    0.007124   0.502534  -0.046614
    13  C    0.001581  -0.074164   0.007259
    14  H    0.000113   0.007424  -0.000551
    15  C    0.001973  -0.051215  -0.000058
    16  H   -0.000540   0.000351   0.000082
    17  C   -0.079885  -0.022434   0.007954
    18  C    0.374120   0.433006  -0.039732
    19  H    0.511948   0.000519  -0.007488
    20  C    0.000519   4.974429   0.383806
    21  H   -0.007488   0.383806   0.464397
 Mulliken atomic charges:
              1
     1  Cl  -0.808423
     2  O   -0.528651
     3  H    0.396094
     4  O   -0.368838
     5  N   -0.446546
     6  H    0.346515
     7  N   -0.624871
     8  H    0.401955
     9  H    0.359709
    10  H    0.431844
    11  C    0.475042
    12  C   -0.190651
    13  C   -0.062270
    14  H    0.215050
    15  C   -0.190308
    16  H    0.213052
    17  C    0.228050
    18  C   -0.148623
    19  H    0.187731
    20  C   -0.100373
    21  H    0.214511
 Sum of Mulliken atomic charges =   0.00000
 Mulliken charges with hydrogens summed into heavy atoms:
              1
     1  Cl  -0.808423
     2  O   -0.132557
     4  O   -0.368838
     5  N   -0.100031
     7  N    0.568636
    11  C    0.475042
    12  C   -0.190651
    13  C    0.152780
    15  C    0.022744
    17  C    0.228050
    18  C    0.039108
    20  C    0.114138
 Sum of Mulliken charges with hydrogens summed into heavy atoms =   0.00000
 Electronic spatial extent (au):  <R**2>=           4505.1467
 Charge=              0.0000 electrons
 Dipole moment (field-independent basis, Debye):
    X=            -11.8109    Y=             -0.2675    Z=              4.4235  Tot=             12.6149
 Quadrupole moment (field-independent basis, Debye-Ang):
   XX=           -164.4353   YY=            -72.4407   ZZ=            -78.7235
   XY=            -16.0371   XZ=             15.3845   YZ=             -0.9823
 Traceless Quadrupole moment (field-independent basis, Debye-Ang):
   XX=            -59.2355   YY=             32.7591   ZZ=             26.4764
   XY=            -16.0371   XZ=             15.3845   YZ=             -0.9823
 Octapole moment (field-independent basis, Debye-Ang**2):
  XXX=           -667.8758  YYY=              2.1864  ZZZ=              8.6921  XYY=             16.1660
  XXY=             26.6600  XXZ=             57.1428  XZZ=             -9.5249  YZZ=             -4.0798
  YYZ=              4.8927  XYZ=             -0.0472
 Hexadecapole moment (field-independent basis, Debye-Ang**3):
 XXXX=          -8312.6810 YYYY=           -412.1543 ZZZZ=           -113.3061 XXXY=           -327.8420
 XXXZ=            280.8751 YYYX=            -35.8524 YYYZ=              0.2828 ZZZX=             37.0901
 ZZZY=             -5.6187 XXYY=          -1047.3396 XXZZ=           -928.4804 YYZZ=            -96.4193
 XXYZ=            -20.0119 YYXZ=             10.5097 ZZXY=             -8.3149
 N-N= 7.226378344406D+02 E-N=-3.781349823707D+03  KE= 9.919047438055D+02
 Calling FoFJK, ICntrl=      2127 FMM=F ISym2X=0 I1Cent= 0 IOpClX= 0 NMat=1 NMatS=1 NMatT=0.
 ***** Axes restored to original set *****
 -------------------------------------------------------------------
 Center     Atomic                   Forces (Hartrees/Bohr)
 Number     Number              X              Y              Z
 -------------------------------------------------------------------
      1       17           0.010135972   -0.000709367   -0.013091375
      2        8          -0.043201581   -0.081965150    0.155661861
      3        1           0.025986294    0.049996624   -0.199356131
      4        8           0.002159283    0.005476134   -0.013403925
      5        7           0.046821546    0.165720403   -0.065840337
      6        1          -0.042509653   -0.160595238    0.057579984
      7        7          -0.066462360   -0.055365679   -0.098692455
      8        1           0.127598221   -0.034846951   -0.029596777
      9        1          -0.047119541   -0.036633558    0.153883296
     10        1          -0.019969167    0.127762665   -0.005011735
     11        6           0.018371212    0.031771586    0.057910872
     12        6          -0.004683194   -0.008083474   -0.009099642
     13        6           0.042960169    0.086291563    0.081546585
     14        1          -0.043811227   -0.087507707   -0.087790840
     15        6           0.054473344    0.102641607   -0.035305906
     16        1          -0.059129499   -0.110708067    0.040970343
     17        6          -0.008944561   -0.005859701    0.003667508
     18        6          -0.045180272   -0.090296508   -0.071422790
     19        1           0.044846523    0.090625172    0.082763411
     20        6          -0.050501095   -0.097733058    0.037513229
     21        1           0.058159586    0.110018704   -0.042885177
 -------------------------------------------------------------------
 Cartesian Forces:  Max     0.199356131 RMS     0.074994119

 GradGradGradGradGradGradGradGradGradGradGradGradGradGradGradGradGradGrad
 Berny optimization.
 Internal  Forces:  Max     0.206755454 RMS     0.046291827
 Search for a local minimum.
 Step number   1 out of a maximum of  106
 All quantities printed in internal units (Hartrees-Bohrs-Radians)
 Mixed Optimization -- RFO/linear search
 Second derivative matrix not updated -- first step.
 ITU=  0
     Eigenvalues ---    0.00733   0.01031   0.01375   0.01681   0.01816
     Eigenvalues ---    0.01914   0.02124   0.02178   0.02208   0.02212
     Eigenvalues ---    0.02220   0.02229   0.02241   0.02283   0.02307
     Eigenvalues ---    0.02891   0.03644   0.06641   0.07201   0.11560
     Eigenvalues ---    0.13060   0.13998   0.16000   0.16000   0.16000
     Eigenvalues ---    0.16000   0.16000   0.16000   0.22000   0.22632
     Eigenvalues ---    0.22967   0.23988   0.24943   0.24999   0.25000
     Eigenvalues ---    0.25000   0.25000   0.34574   0.39245   0.41866
     Eigenvalues ---    0.42142   0.43109   0.45755   0.46696   0.47780
     Eigenvalues ---    0.48912   0.57596   0.57690   0.57722   0.57772
     Eigenvalues ---    0.64669   0.67801   0.67807   0.68006   0.76850
     Eigenvalues ---    0.88701   0.91907
 RFO step:  Lambda=-2.26948115D-01 EMin= 7.32613236D-03
 Linear search not attempted -- first point.
 Maximum step size (   0.300) exceeded in Quadratic search.
    -- Step size scaled by   0.591
 Iteration  1 RMS(Cart)=  0.04294690 RMS(Int)=  0.00088450
 Iteration  2 RMS(Cart)=  0.00075608 RMS(Int)=  0.00001410
 Iteration  3 RMS(Cart)=  0.00000216 RMS(Int)=  0.00001405
 Iteration  4 RMS(Cart)=  0.00000000 RMS(Int)=  0.00001405
 Variable       Old X    -DE/DX   Delta X   Delta X   Delta X     New X
                                 (Linear)    (Quad)   (Total)
    R1        4.28378  -0.01648   0.00000  -0.03698  -0.03698   4.24680
    R2        1.58767   0.20676   0.00000   0.10663   0.10663   1.69430
    R3        2.47426   0.05569   0.00000   0.03768   0.03768   2.51194
    R4        2.33537   0.00953   0.00000   0.00506   0.00506   2.34043
    R5        1.66360   0.17567   0.00000   0.10431   0.10431   1.76791
    R6        2.72593   0.00739   0.00000   0.00705   0.00705   2.73298
    R7        2.69094  -0.00323   0.00000  -0.00296  -0.00296   2.68798
    R8        1.71949   0.13551   0.00000   0.08850   0.08850   1.80799
    R9        1.71816   0.15008   0.00000   0.09780   0.09780   1.81596
   R10        1.71953   0.12898   0.00000   0.08424   0.08424   1.80378
   R11        2.79671   0.00069   0.00000   0.00071   0.00071   2.79743
   R12        2.64389   0.00532   0.00000   0.00458   0.00458   2.64847
   R13        2.62142   0.00999   0.00000   0.00848   0.00848   2.62990
   R14        1.79448   0.13147   0.00000   0.09657   0.09657   1.89105
   R15        2.61146   0.00899   0.00000   0.00732   0.00732   2.61878
   R16        1.79516   0.13202   0.00000   0.09707   0.09707   1.89224
   R17        2.64272   0.00627   0.00000   0.00530   0.00530   2.64802
   R18        2.64428   0.00629   0.00000   0.00545   0.00545   2.64973
   R19        1.79595   0.13055   0.00000   0.09611   0.09611   1.89206
   R20        2.60835   0.01247   0.00000   0.01039   0.01039   2.61874
   R21        1.79490   0.13162   0.00000   0.09674   0.09674   1.89164
    A1        1.91130   0.02070   0.00000   0.03161   0.03161   1.94291
    A2        1.93842  -0.00563   0.00000  -0.00596  -0.00598   1.93244
    A3        2.10092  -0.00665   0.00000  -0.00796  -0.00800   2.09292
    A4        1.98078   0.01785   0.00000   0.02382   0.02380   2.00458
    A5        1.91118   0.00607   0.00000   0.01059   0.01058   1.92176
    A6        1.91063  -0.00704   0.00000  -0.01163  -0.01165   1.89898
    A7        1.91059   0.00015   0.00000  -0.00031  -0.00038   1.91021
    A8        1.91028   0.00088   0.00000   0.00159   0.00162   1.91191
    A9        1.91080   0.00184   0.00000   0.00457   0.00454   1.91534
   A10        1.91032  -0.00191   0.00000  -0.00481  -0.00485   1.90547
   A11        2.69117   0.00657   0.00000   0.00814   0.00814   2.69931
   A12        2.16372  -0.01096   0.00000  -0.01358  -0.01358   2.15014
   A13        2.01011  -0.00394   0.00000  -0.00488  -0.00488   2.00522
   A14        2.10927   0.01492   0.00000   0.01849   0.01849   2.12776
   A15        2.12634  -0.00088   0.00000  -0.00117  -0.00117   2.12517
   A16        2.06774   0.00054   0.00000   0.00059   0.00059   2.06833
   A17        2.08910   0.00035   0.00000   0.00058   0.00059   2.08969
   A18        2.09560  -0.00105   0.00000  -0.00131  -0.00131   2.09429
   A19        2.09188   0.00179   0.00000   0.00216   0.00216   2.09405
   A20        2.09570  -0.00074   0.00000  -0.00085  -0.00085   2.09485
   A21        2.09394   0.00037   0.00000   0.00060   0.00060   2.09454
   A22        2.09518  -0.00129   0.00000  -0.00205  -0.00205   2.09313
   A23        2.09406   0.00092   0.00000   0.00145   0.00145   2.09551
   A24        2.05497  -0.00133   0.00000  -0.00158  -0.00158   2.05338
   A25        2.12929   0.00009   0.00000   0.00017   0.00017   2.12947
   A26        2.09698   0.00127   0.00000   0.00148   0.00148   2.09846
   A27        2.10139   0.00431   0.00000   0.00652   0.00652   2.10791
   A28        2.07979   0.00052   0.00000   0.00093   0.00094   2.08072
   A29        2.10201  -0.00484   0.00000  -0.00746  -0.00746   2.09456
   A30        2.11336  -0.00263   0.00000  -0.00310  -0.00310   2.11026
   A31        2.08542  -0.00014   0.00000  -0.00067  -0.00067   2.08475
   A32        2.08441   0.00277   0.00000   0.00377   0.00377   2.08817
    D1       -0.02771   0.00086   0.00000   0.00195   0.00193  -0.02578
    D2        3.12794  -0.00018   0.00000  -0.00038  -0.00037   3.12757
    D3        1.45052   0.00196   0.00000   0.00590   0.00589   1.45641
    D4       -0.64378   0.00148   0.00000   0.00459   0.00463  -0.63914
    D5       -2.73776   0.00803   0.00000   0.01779   0.01780  -2.71996
    D6       -0.98081  -0.00105   0.00000  -0.00127  -0.00131  -0.98212
    D7       -3.07511  -0.00153   0.00000  -0.00257  -0.00256  -3.07767
    D8        1.11409   0.00502   0.00000   0.01063   0.01061   1.12470
    D9        0.36949  -0.00267   0.00000  -0.00546  -0.00545   0.36404
   D10       -2.83905  -0.00214   0.00000  -0.00425  -0.00424  -2.84330
   D11        2.72828   0.00252   0.00000   0.00518   0.00517   2.73345
   D12       -0.48027   0.00305   0.00000   0.00639   0.00638  -0.47389
   D13       -1.12453   0.00345   0.00000   0.00686   0.00684  -1.11769
   D14        3.06381  -0.00021   0.00000   0.00005   0.00004   3.06385
   D15        0.96962  -0.00184   0.00000  -0.00358  -0.00354   0.96608
   D16        0.00589   0.00030   0.00000   0.00076   0.00077   0.00666
   D17       -3.13880   0.00042   0.00000   0.00106   0.00107  -3.13773
   D18       -3.12213  -0.00048   0.00000  -0.00121  -0.00122  -3.12334
   D19        0.01637  -0.00036   0.00000  -0.00091  -0.00092   0.01545
   D20        0.00469  -0.00003   0.00000  -0.00006  -0.00006   0.00464
   D21       -3.13678  -0.00015   0.00000  -0.00036  -0.00036  -3.13714
   D22       -3.13377  -0.00015   0.00000  -0.00036  -0.00036  -3.13413
   D23        0.00794  -0.00028   0.00000  -0.00066  -0.00066   0.00729
   D24        3.14026  -0.00010   0.00000  -0.00025  -0.00025   3.14001
   D25       -0.00145   0.00021   0.00000   0.00048   0.00048  -0.00097
   D26       -0.00436   0.00002   0.00000   0.00004   0.00004  -0.00432
   D27        3.13712   0.00033   0.00000   0.00077   0.00077   3.13789
   D28        3.14065  -0.00002   0.00000  -0.00004  -0.00004   3.14061
   D29       -0.00153   0.00015   0.00000   0.00036   0.00036  -0.00118
   D30       -0.00082  -0.00014   0.00000  -0.00034  -0.00034  -0.00116
   D31        3.14018   0.00002   0.00000   0.00006   0.00006   3.14024
   D32        3.06744   0.00071   0.00000   0.00169   0.00169   3.06914
   D33       -0.00849   0.00024   0.00000   0.00056   0.00056  -0.00793
   D34       -0.07474   0.00088   0.00000   0.00209   0.00209  -0.07265
   D35        3.13252   0.00040   0.00000   0.00095   0.00095   3.13347
   D36        0.08054  -0.00128   0.00000  -0.00308  -0.00309   0.07745
   D37       -3.06106  -0.00094   0.00000  -0.00229  -0.00229  -3.06335
   D38       -3.12959  -0.00083   0.00000  -0.00196  -0.00196  -3.13155
   D39        0.01200  -0.00050   0.00000  -0.00117  -0.00117   0.01084
   D40       -0.00559   0.00038   0.00000   0.00088   0.00088  -0.00470
   D41        3.13612   0.00007   0.00000   0.00015   0.00015   3.13627
   D42        3.13600   0.00072   0.00000   0.00168   0.00167   3.13768
   D43       -0.00548   0.00040   0.00000   0.00095   0.00094  -0.00453
         Item               Value     Threshold  Converged?
 Maximum Force            0.206755     0.000015     NO 
 RMS     Force            0.046292     0.000010     NO 
 Maximum Displacement     0.146417     0.000060     NO 
 RMS     Displacement     0.043147     0.000040     NO 
 Predicted change in Energy=-1.047903D-01
 GradGradGradGradGradGradGradGradGradGradGradGradGradGradGradGradGradGrad

                          Input orientation:                          
 ---------------------------------------------------------------------
 Center     Atomic      Atomic             Coordinates (Angstroms)
 Number     Number       Type             X           Y           Z
 ---------------------------------------------------------------------
      1         17           0        3.155392    4.609572   11.006113
      2          8           0        3.992029    4.485845    1.006468
      3          1           0        4.110180    4.719332    0.148920
      4          8           0        5.043672    6.438326    1.436927
      5          7           0        3.764026    4.380628    7.375308
      6          1           0        3.567138    3.512600    7.663391
      7          7           0        4.679003    5.027927    8.289315
      8          1           0        5.579676    4.777951    8.085192
      9          1           0        4.465264    4.756088    9.185903
     10          1           0        4.583084    5.974895    8.217529
     11          6           0        4.477838    5.409184    1.830101
     12          6           0        4.307399    5.111321    3.270108
     13          6           0        3.685714    3.935430    3.711724
     14          1           0        3.346706    3.268733    3.046898
     15          6           0        3.540920    3.696386    5.069049
     16          1           0        3.096062    2.856791    5.385028
     17          6           0        4.017845    4.630590    5.998223
     18          6           0        4.650050    5.802867    5.559832
     19          1           0        5.001488    6.471756    6.216754
     20          6           0        4.784815    6.030560    4.199549
     21          1           0        5.230997    6.867516    3.879469
 ---------------------------------------------------------------------
                    Distance matrix (angstroms):
                    1          2          3          4          5
     1  Cl   0.000000
     2  O   10.035346   0.000000
     3  H   10.899647   0.896585   0.000000
     4  O    9.923671   2.259078   2.342074   0.000000
     5  N    3.688576   6.373789   7.242598   6.413733   0.000000
     6  H    3.542128   6.741095   7.630097   7.036254   0.935537
     7  N    3.142834   7.335233   8.166078   7.005528   1.446232
     8  H    3.799642   7.260460   8.071386   6.873395   1.989569
     9  H    2.247308   8.197570   9.044032   7.950541   1.977615
    10  H    3.417398   7.386882   8.179397   6.812009   1.980374
    11  C    9.305237   1.329262   1.854034   1.238502   5.684784
    12  C    7.837387   2.369546   3.151884   2.379830   4.204977
    13  C    7.344645   2.777625   3.672635   3.644618   3.691365
    14  H    8.073633   2.461942   3.329476   3.939292   4.488385
    15  C    6.019241   4.163089   5.057485   4.792578   2.415946
    16  H    5.888324   4.756928   5.649276   5.675216   2.594122
    17  C    5.081656   4.993920   5.850705   5.012549   1.422416
    18  C    5.772342   4.785464   5.544681   4.190118   2.470578
    19  H    5.460197   5.666563   6.378404   4.780130   2.691909
    20  C    7.141676   3.634615   4.310690   2.804524   3.721523
    21  H    7.758576   3.932116   4.448362   2.487027   4.534039
                    6          7          8          9         10
     6  H    0.000000
     7  N    1.980970   0.000000
     8  H    2.414403   0.956748   0.000000
     9  H    2.161235   0.960964   1.566511   0.000000
    10  H    2.720683   0.954517   1.563133   1.561128   0.000000
    11  C    6.201103   6.473582   6.382684   7.384749   6.413294
    12  C    4.733374   5.033634   4.991478   5.928553   5.029785
    13  C    3.975992   4.809834   4.839850   5.589974   5.026626
    14  H    4.628182   5.687945   5.713869   6.414888   5.965515
    15  C    2.600976   3.665835   3.797819   4.350387   4.023759
    16  H    2.417216   3.956566   4.141265   4.464157   4.467311
    17  C    2.055681   2.417459   2.610837   3.221372   2.655555
    18  C    3.292868   2.837507   2.879600   3.778661   2.664101
    19  H    3.592593   2.546398   2.587341   3.470864   2.103577
    20  C    4.452086   4.212203   4.159213   5.156561   4.023427
    21  H    5.323717   4.809940   4.709136   5.762180   4.476084
                   11         12         13         14         15
    11  C    0.000000
    12  C    1.480335   0.000000
    13  C    2.517919   1.401512   0.000000
    14  H    2.709536   2.089949   1.000703   0.000000
    15  C    3.781835   2.413653   1.385799   2.075982   0.000000
    16  H    4.589283   3.320109   2.076318   2.387335   1.001329
    17  C    4.265096   2.785238   2.412806   3.318946   1.401270
    18  C    3.754402   2.416295   2.798708   3.799392   2.430699
    19  H    4.543786   3.318925   3.799919   4.800588   3.339635
    20  C    2.468729   1.391684   2.415692   3.320309   2.784183
    21  H    2.625622   2.075710   3.318609   4.146681   3.785172
                   16         17         18         19         20
    16  H    0.000000
    17  C    2.090945   0.000000
    18  C    3.335385   1.402178   0.000000
    19  H    4.170178   2.098857   1.001233   0.000000
    20  C    3.785506   2.404868   1.385777   2.076227   0.000000
    21  H    4.786498   3.311298   2.072341   2.381639   1.001012
                   21
    21  H    0.000000
 Stoichiometry    C7H9ClN2O2
 Framework group  C1[X(C7H9ClN2O2)]
 Deg. of freedom    57
 Full point group                 C1      NOp   1
 Largest Abelian subgroup         C1      NOp   1
 Largest concise Abelian subgroup C1      NOp   1
                         Standard orientation:                         
 ---------------------------------------------------------------------
 Center     Atomic      Atomic             Coordinates (Angstroms)
 Number     Number       Type             X           Y           Z
 ---------------------------------------------------------------------
      1         17           0        5.511919    0.098550   -0.347166
      2          8           0       -4.482622    0.966449   -0.094016
      3          1           0       -5.362903    0.809593   -0.160098
      4          8           0       -4.313771   -1.284082   -0.194187
      5          7           0        1.864173    0.413634    0.100345
      6          1           0        2.235600    1.218115    0.400484
      7          7           0        2.624453   -0.715064    0.589837
      8          1           0        2.344620   -0.940486    1.476541
      9          1           0        3.556503   -0.481210    0.596562
     10          1           0        2.492833   -1.462157    0.010500
     11          6           0       -3.786755   -0.165849   -0.118713
     12          6           0       -2.318590    0.003120   -0.033070
     13          6           0       -1.726632    1.268970    0.073916
     14          1           0       -2.299864    2.088864    0.098097
     15          6           0       -0.347573    1.384642    0.146389
     16          1           0        0.075850    2.288887    0.221985
     17          6           0        0.453073    0.235088    0.113989
     18          6           0       -0.136540   -1.033474    0.018017
     19          1           0        0.427364   -1.860668    0.002863
     20          6           0       -1.516616   -1.133999   -0.057232
     21          1           0       -1.944049   -2.036192   -0.130540
 ---------------------------------------------------------------------
 Rotational constants (GHZ):      3.1801781      0.2284730      0.2155987
 Standard basis: 6-311G (5D, 7F)
 There are   191 symmetry adapted basis functions of A   symmetry.
 Integral buffers will be    131072 words long.
 Raffenetti 2 integral format.
 Two-electron integral symmetry is turned on.
   191 basis functions,   374 primitive gaussians,   191 cartesian basis functions
    49 alpha electrons       49 beta electrons
       nuclear repulsion energy       716.8059037979 Hartrees.
 NAtoms=   21 NActive=   21 NUniq=   21 SFac= 1.00D+00 NAtFMM=   60 NAOKFM=F Big=F
 One-electron integrals computed using PRISM.
 NBasis=   191 RedAO= T  NBF=   191
 NBsUse=   191 1.00D-06 NBFU=   191
 Initial guess read from the read-write file.
 B after Tr=     0.000000    0.000000    0.000000
         Rot=    1.000000    0.000000    0.000000    0.000000 Ang=   0.00 deg.
 Initial guess orbital symmetries:
       Occupied  (A) (A) (A) (A) (A) (A) (A) (A) (A) (A) (A) (A)
                 (A) (A) (A) (A) (A) (A) (A) (A) (A) (A) (A) (A)
                 (A) (A) (A) (A) (A) (A) (A) (A) (A) (A) (A) (A)
                 (A) (A) (A) (A) (A) (A) (A) (A) (A) (A) (A) (A)
                 (A)
       Virtual   (A) (A) (A) (A) (A) (A) (A) (A) (A) (A) (A) (A)
                 (A) (A) (A) (A) (A) (A) (A) (A) (A) (A) (A) (A)
                 (A) (A) (A) (A) (A) (A) (A) (A) (A) (A) (A) (A)
                 (A) (A) (A) (A) (A) (A) (A) (A) (A) (A) (A) (A)
                 (A) (A) (A) (A) (A) (A) (A) (A) (A) (A) (A) (A)
                 (A) (A) (A) (A) (A) (A) (A) (A) (A) (A) (A) (A)
                 (A) (A) (A) (A) (A) (A) (A) (A) (A) (A) (A) (A)
                 (A) (A) (A) (A) (A) (A) (A) (A) (A) (A) (A) (A)
                 (A) (A) (A) (A) (A) (A) (A) (A) (A) (A) (A) (A)
                 (A) (A) (A) (A) (A) (A) (A) (A) (A) (A) (A) (A)
                 (A) (A) (A) (A) (A) (A) (A) (A) (A) (A) (A) (A)
                 (A) (A) (A) (A) (A) (A) (A) (A) (A) (A)
 Harris functional with IExCor=  402 diagonalized for initial guess.
 ExpMin= 1.03D-01 ExpMax= 1.06D+05 ExpMxC= 3.62D+03 IAcc=2 IRadAn=         4 AccDes= 0.00D+00
 HarFok:  IExCor=  402 AccDes= 0.00D+00 IRadAn=         4 IDoV= 1
 ScaDFX=  1.000000  1.000000  1.000000  1.000000
 FoFCou: FMM=F IPFlag=           0 FMFlag=      100000 FMFlg1=           0
         NFxFlg=           0 DoJE=T BraDBF=F KetDBF=T FulRan=T
         Omega=  0.000000  0.000000  1.000000  0.000000  0.000000 ICntrl=     500 IOpCl=  0
         NMat0=    1 NMatS0=    1 NMatT0=    0 NMatD0=    1 NMtDS0=    0 NMtDT0=    0
         I1Cent=           4 NGrid=           0.
 Petite list used in FoFCou.
 Requested convergence on RMS density matrix=1.00D-08 within 128 cycles.
 Requested convergence on MAX density matrix=1.00D-06.
 Requested convergence on             energy=1.00D-06.
 No special actions if energy rises.
 Integral accuracy reduced to 1.0D-05 until final iterations.
 Initial convergence to 1.0D-05 achieved.  Increase integral accuracy.
 SCF Done:  E(RB3LYP) =  -992.239113754     A.U. after   14 cycles
             Convg  =    0.4126D-08             -V/T =  2.0014
 Calling FoFJK, ICntrl=      2127 FMM=F ISym2X=0 I1Cent= 0 IOpClX= 0 NMat=1 NMatS=1 NMatT=0.
 ***** Axes restored to original set *****
 -------------------------------------------------------------------
 Center     Atomic                   Forces (Hartrees/Bohr)
 Number     Number              X              Y              Z
 -------------------------------------------------------------------
      1       17           0.011403213   -0.000446581   -0.014301004
      2        8          -0.023249722   -0.043131889    0.069869086
      3        1           0.011092220    0.021201834   -0.093789527
      4        8          -0.000031733    0.001333469   -0.007924532
      5        7           0.028128053    0.081558701   -0.033226314
      6        1          -0.023353474   -0.075918236    0.028083068
      7        7          -0.029513350   -0.030657907   -0.061400969
      8        1           0.066594499   -0.015402857   -0.012738903
      9        1          -0.034789817   -0.019466340    0.089964670
     10        1          -0.012145787    0.064761914    0.001631765
     11        6           0.015019426    0.025107290    0.034460769
     12        6          -0.003726464   -0.006442753   -0.008371317
     13        6           0.022410562    0.044816872    0.043331386
     14        1          -0.022997966   -0.045167292   -0.045628407
     15        6           0.028803106    0.053299815   -0.019584122
     16        1          -0.031285828   -0.057427747    0.021698294
     17        6          -0.006575403   -0.004468947    0.004532180
     18        6          -0.024428802   -0.049641789   -0.036384134
     19        1           0.023672286    0.048572987    0.042057368
     20        6          -0.025283546   -0.049276922    0.021040178
     21        1           0.030258527    0.056796377   -0.023319534
 -------------------------------------------------------------------
 Cartesian Forces:  Max     0.093789527 RMS     0.038729955

 GradGradGradGradGradGradGradGradGradGradGradGradGradGradGradGradGradGrad
 Berny optimization.
 Using GEDIIS/GDIIS optimizer.
 Internal  Forces:  Max     0.096689308 RMS     0.023559833
 Search for a local minimum.
 Step number   2 out of a maximum of  106
 All quantities printed in internal units (Hartrees-Bohrs-Radians)
 Mixed Optimization -- RFO/linear search
 Update second derivatives using D2CorX and points    1    2
 DE= -9.98D-02 DEPred=-1.05D-01 R= 9.53D-01
 SS=  1.41D+00  RLast= 3.01D-01 DXNew= 5.0454D-01 9.0352D-01
 Trust test= 9.53D-01 RLast= 3.01D-01 DXMaxT set to 5.05D-01
 ITU=  1  0
 Use linear search instead of GDIIS.
     Eigenvalues ---    0.00733   0.01031   0.01375   0.01664   0.01817
     Eigenvalues ---    0.01914   0.02124   0.02149   0.02178   0.02208
     Eigenvalues ---    0.02219   0.02229   0.02241   0.02283   0.02307
     Eigenvalues ---    0.02891   0.03630   0.06718   0.07176   0.11507
     Eigenvalues ---    0.13228   0.13951   0.15990   0.16000   0.16000
     Eigenvalues ---    0.16000   0.16000   0.16099   0.22000   0.22619
     Eigenvalues ---    0.22969   0.23989   0.24942   0.24948   0.25000
     Eigenvalues ---    0.25000   0.25023   0.34572   0.39253   0.41852
     Eigenvalues ---    0.42155   0.43132   0.45759   0.46695   0.47781
     Eigenvalues ---    0.48921   0.57622   0.57704   0.57752   0.60006
     Eigenvalues ---    0.64242   0.67689   0.67810   0.69062   0.79042
     Eigenvalues ---    0.88713   0.94894
 RFO step:  Lambda=-3.34735802D-02 EMin= 7.32539755D-03
 Quartic linear search produced a step of  1.65047.
 Maximum step size (   0.505) exceeded in Quadratic search.
    -- Step size scaled by   0.910
 Iteration  1 RMS(Cart)=  0.14433355 RMS(Int)=  0.04450134
 Iteration  2 RMS(Cart)=  0.02376268 RMS(Int)=  0.02204229
 Iteration  3 RMS(Cart)=  0.01955673 RMS(Int)=  0.00183197
 Iteration  4 RMS(Cart)=  0.00154105 RMS(Int)=  0.00086930
 Iteration  5 RMS(Cart)=  0.00000010 RMS(Int)=  0.00086930
 Variable       Old X    -DE/DX   Delta X   Delta X   Delta X     New X
                                 (Linear)    (Quad)   (Total)
    R1        4.24680  -0.01820  -0.06104  -0.48057  -0.54161   3.70519
    R2        1.69430   0.09669   0.17600  -0.03373   0.14227   1.83657
    R3        2.51194   0.03450   0.06219   0.02216   0.08434   2.59628
    R4        2.34043   0.00361   0.00834  -0.00375   0.00459   2.34502
    R5        1.76791   0.08400   0.17216  -0.02191   0.15025   1.91816
    R6        2.73298   0.00242   0.01164  -0.00558   0.00606   2.73905
    R7        2.68798  -0.00383  -0.00488  -0.01227  -0.01715   2.67083
    R8        1.80799   0.06943   0.14607   0.00093   0.14700   1.95499
    R9        1.81596   0.08143   0.16142   0.01614   0.17756   1.99352
   R10        1.80378   0.06535   0.13904  -0.00159   0.13745   1.94122
   R11        2.79743  -0.00131   0.00118  -0.01024  -0.00907   2.78836
   R12        2.64847   0.00282   0.00756   0.00140   0.00896   2.65744
   R13        2.62990   0.00586   0.01399   0.00518   0.01918   2.64909
   R14        1.89105   0.06820   0.15939   0.01110   0.17049   2.06154
   R15        2.61878   0.00451   0.01207   0.00059   0.01265   2.63143
   R16        1.89224   0.06890   0.16022   0.01286   0.17308   2.06531
   R17        2.64802   0.00370   0.00874   0.00325   0.01199   2.66000
   R18        2.64973   0.00319   0.00900   0.00096   0.00995   2.65969
   R19        1.89206   0.06835   0.15862   0.01368   0.17230   2.06436
   R20        2.61874   0.00684   0.01715   0.00399   0.02114   2.63988
   R21        1.89164   0.06843   0.15966   0.01179   0.17145   2.06309
    A1        1.94291   0.00760   0.05218  -0.00055   0.05163   1.99454
    A2        1.93244  -0.00389  -0.00986   0.00789  -0.00462   1.92782
    A3        2.09292  -0.00491  -0.01321  -0.00216  -0.01891   2.07401
    A4        2.00458   0.01298   0.03928   0.06364   0.10027   2.10484
    A5        1.92176   0.00597   0.01747   0.06786   0.08454   2.00630
    A6        1.89898  -0.00546  -0.01922  -0.04599  -0.06583   1.83315
    A7        1.91021   0.00081  -0.00063   0.00425  -0.00037   1.90984
    A8        1.91191   0.00015   0.00268   0.00093   0.00506   1.91697
    A9        1.91534   0.00072   0.00750   0.02139   0.02684   1.94218
   A10        1.90547  -0.00230  -0.00801  -0.04998  -0.05984   1.84563
   A11        2.69931   0.00687   0.01344   0.03501   0.04845   2.74776
   A12        2.15014  -0.00575  -0.02241  -0.00999  -0.03251   2.11763
   A13        2.00522  -0.00521  -0.00806  -0.03011  -0.03829   1.96693
   A14        2.12776   0.01097   0.03051   0.04035   0.07074   2.19851
   A15        2.12517   0.00015  -0.00193   0.00424   0.00230   2.12747
   A16        2.06833   0.00017   0.00097  -0.00063   0.00034   2.06867
   A17        2.08969  -0.00032   0.00097  -0.00361  -0.00264   2.08705
   A18        2.09429  -0.00110  -0.00217  -0.00712  -0.00929   2.08500
   A19        2.09405   0.00138   0.00357   0.00556   0.00912   2.10316
   A20        2.09485  -0.00029  -0.00140   0.00156   0.00016   2.09501
   A21        2.09454   0.00017   0.00099   0.00092   0.00192   2.09646
   A22        2.09313  -0.00040  -0.00338  -0.00015  -0.00356   2.08957
   A23        2.09551   0.00023   0.00239  -0.00077   0.00162   2.09713
   A24        2.05338  -0.00055  -0.00261   0.00054  -0.00211   2.05127
   A25        2.12947   0.00062   0.00029   0.00549   0.00575   2.13522
   A26        2.09846  -0.00004   0.00244  -0.00523  -0.00284   2.09561
   A27        2.10791   0.00302   0.01076   0.01863   0.02937   2.13728
   A28        2.08072   0.00092   0.00154   0.00708   0.00861   2.08934
   A29        2.09456  -0.00394  -0.01231  -0.02572  -0.03804   2.05652
   A30        2.11026  -0.00153  -0.00511  -0.00352  -0.00865   2.10162
   A31        2.08475  -0.00067  -0.00110  -0.00938  -0.01050   2.07426
   A32        2.08817   0.00220   0.00621   0.01290   0.01910   2.10727
    D1       -0.02578   0.00070   0.00319   0.02102   0.02356  -0.00222
    D2        3.12757  -0.00009  -0.00060  -0.00362  -0.00357   3.12400
    D3        1.45641   0.00199   0.00971   0.12997   0.13902   1.59543
    D4       -0.63914   0.00158   0.00765   0.11628   0.12574  -0.51340
    D5       -2.71996   0.00715   0.02939   0.20174   0.23223  -2.48773
    D6       -0.98212  -0.00043  -0.00216   0.05220   0.04788  -0.93424
    D7       -3.07767  -0.00084  -0.00422   0.03851   0.03460  -3.04307
    D8        1.12470   0.00473   0.01751   0.12397   0.14108   1.26579
    D9        0.36404  -0.00194  -0.00899  -0.03981  -0.04859   0.31546
   D10       -2.84330  -0.00153  -0.00700  -0.02604  -0.03282  -2.87612
   D11        2.73345   0.00216   0.00854   0.05367   0.06200   2.79545
   D12       -0.47389   0.00257   0.01053   0.06745   0.07776  -0.39613
   D13       -1.11769   0.00310   0.01128   0.05481   0.06430  -1.05339
   D14        3.06385  -0.00093   0.00006  -0.00046  -0.00072   3.06313
   D15        0.96608  -0.00050  -0.00584   0.00346  -0.00028   0.96580
   D16        0.00666   0.00024   0.00127   0.00856   0.01015   0.01681
   D17       -3.13773   0.00034   0.00176   0.01193   0.01399  -3.12374
   D18       -3.12334  -0.00041  -0.00201  -0.01536  -0.01766  -3.14100
   D19        0.01545  -0.00032  -0.00152  -0.01199  -0.01383   0.00163
   D20        0.00464  -0.00003  -0.00010  -0.00091  -0.00104   0.00360
   D21       -3.13714  -0.00017  -0.00059  -0.00565  -0.00627   3.13978
   D22       -3.13413  -0.00013  -0.00059  -0.00432  -0.00491  -3.13904
   D23        0.00729  -0.00027  -0.00109  -0.00907  -0.01014  -0.00286
   D24        3.14001  -0.00008  -0.00041  -0.00234  -0.00273   3.13728
   D25       -0.00097   0.00018   0.00079   0.00545   0.00614   0.00517
   D26       -0.00432   0.00002   0.00006   0.00097   0.00102  -0.00330
   D27        3.13789   0.00028   0.00127   0.00876   0.00988  -3.13542
   D28        3.14061   0.00000  -0.00006   0.00016   0.00008   3.14069
   D29       -0.00118   0.00018   0.00059   0.00614   0.00676   0.00558
   D30       -0.00116  -0.00014  -0.00056  -0.00459  -0.00519  -0.00635
   D31        3.14024   0.00004   0.00010   0.00139   0.00149  -3.14145
   D32        3.06914   0.00059   0.00279   0.01877   0.02145   3.09058
   D33       -0.00793   0.00016   0.00092   0.00483   0.00572  -0.00221
   D34       -0.07265   0.00077   0.00345   0.02475   0.02813  -0.04452
   D35        3.13347   0.00034   0.00157   0.01082   0.01240  -3.13731
   D36        0.07745  -0.00110  -0.00509  -0.03572  -0.04100   0.03645
   D37       -3.06335  -0.00082  -0.00378  -0.02712  -0.03090  -3.09424
   D38       -3.13155  -0.00069  -0.00324  -0.02137  -0.02482   3.12682
   D39        0.01084  -0.00041  -0.00192  -0.01277  -0.01471  -0.00387
   D40       -0.00470   0.00032   0.00146   0.00987   0.01133   0.00663
   D41        3.13627   0.00007   0.00025   0.00206   0.00229   3.13856
   D42        3.13768   0.00060   0.00276   0.01837   0.02095  -3.12456
   D43       -0.00453   0.00034   0.00156   0.01057   0.01190   0.00737
         Item               Value     Threshold  Converged?
 Maximum Force            0.096689     0.000015     NO 
 RMS     Force            0.023560     0.000010     NO 
 Maximum Displacement     0.757613     0.000060     NO 
 RMS     Displacement     0.149679     0.000040     NO 
 Predicted change in Energy=-3.372108D-02
 GradGradGradGradGradGradGradGradGradGradGradGradGradGradGradGradGradGrad

                          Input orientation:                          
 ---------------------------------------------------------------------
 Center     Atomic      Atomic             Coordinates (Angstroms)
 Number     Number       Type             X           Y           Z
 ---------------------------------------------------------------------
      1         17           0        3.140865    4.208661   10.762786
      2          8           0        3.916720    4.418303    1.018711
      3          1           0        3.997548    4.578155    0.063492
      4          8           0        5.062406    6.369375    1.303796
      5          7           0        3.835568    4.447739    7.378865
      6          1           0        3.571074    3.514313    7.677321
      7          7           0        4.669529    5.082431    8.380141
      8          1           0        5.686720    4.942987    8.253101
      9          1           0        4.362571    4.662637    9.297971
     10          1           0        4.434425    6.080758    8.437701
     11          6           0        4.492702    5.387128    1.804335
     12          6           0        4.329152    5.122177    3.246647
     13          6           0        3.666209    3.976345    3.721120
     14          1           0        3.261560    3.256683    3.008057
     15          6           0        3.530249    3.753996    5.089008
     16          1           0        3.013086    2.861764    5.450853
     17          6           0        4.054711    4.686973    6.003264
     18          6           0        4.715851    5.837942    5.535218
     19          1           0        5.125562    6.593631    6.209335
     20          6           0        4.852773    6.047007    4.160788
     21          1           0        5.360018    6.935296    3.779290
 ---------------------------------------------------------------------
                    Distance matrix (angstroms):
                    1          2          3          4          5
     1  Cl   0.000000
     2  O    9.777162   0.000000
     3  H   10.739894   0.971869   0.000000
     4  O    9.891082   2.280473   2.425025   0.000000
     5  N    3.462758   6.360740   7.318328   6.488781   0.000000
     6  H    3.191754   6.728578   7.699612   7.141238   1.015046
     7  N    2.962649   7.429565   8.358977   7.203141   1.449441
     8  H    3.649539   7.466231   8.369952   7.121601   2.106258
     9  H    1.960700   8.294856   9.242076   8.204240   2.001720
    10  H    3.253317   7.620576   8.519157   7.167305   2.036299
    11  C    9.136197   1.373894   1.982460   1.240932   5.691191
    12  C    7.664130   2.372602   3.246290   2.422361   4.215888
    13  C    7.065057   2.749745   3.721586   3.676876   3.691882
    14  H    7.813875   2.395014   3.310352   3.979498   4.566405
    15  C    5.705270   4.142219   5.114041   4.849283   2.412042
    16  H    5.481523   4.783644   5.739235   5.805268   2.628502
    17  C    4.870005   4.993696   5.941044   5.092242   1.413341
    18  C    5.697596   4.801336   5.660637   4.278722   2.471152
    19  H    5.510084   5.756382   6.565511   4.911068   2.763465
    20  C    7.063747   3.660809   4.435851   2.882755   3.734753
    21  H    7.818465   4.004892   4.606472   2.556738   4.633446
                    6          7          8          9         10
     6  H    0.000000
     7  N    2.039499   0.000000
     8  H    2.616981   1.034534   0.000000
     9  H    2.138135   1.054923   1.709889   0.000000
    10  H    2.812506   1.027250   1.702011   1.660209   0.000000
    11  C    6.232881   6.585236   6.573395   7.529701   6.669787
    12  C    4.773969   5.144919   5.190345   6.068840   5.279867
    13  C    3.984226   4.892500   5.055267   5.661907   5.221575
    14  H    4.686597   5.845940   6.019593   6.538497   6.231536
    15  C    2.599708   3.727500   4.009433   4.385631   4.176733
    16  H    2.386280   4.031860   4.396863   4.456969   4.615559
    17  C    2.100358   2.486751   2.791194   3.309148   2.830777
    18  C    3.361305   2.943896   3.021658   3.957835   2.926186
    19  H    3.748816   2.684043   2.686355   3.721635   2.388791
    20  C    4.519214   4.332080   4.319879   5.342979   4.297456
    21  H    5.486173   5.007765   4.908260   6.051092   4.825738
                   11         12         13         14         15
    11  C    0.000000
    12  C    1.475538   0.000000
    13  C    2.519417   1.406254   0.000000
    14  H    2.739243   2.162579   1.090922   0.000000
    15  C    3.792428   2.429909   1.392495   2.156355   0.000000
    16  H    4.675876   3.420530   2.158897   2.486956   1.092917
    17  C    4.279376   2.804222   2.421593   3.412636   1.407612
    18  C    3.764641   2.428871   2.803256   3.894150   2.438768
    19  H    4.610877   3.402494   3.895012   4.985770   3.444370
    20  C    2.473452   1.401835   2.426703   3.412720   2.805096
    21  H    2.655091   2.152624   3.409951   4.304709   3.896676
                   16         17         18         19         20
    16  H    0.000000
    17  C    2.172908   0.000000
    18  C    3.429892   1.407445   0.000000
    19  H    4.354846   2.196482   1.092411   0.000000
    20  C    3.898011   2.425142   1.396966   2.137698   0.000000
    21  H    4.989576   3.421234   2.168507   2.465122   1.091740
                   21
    21  H    0.000000
 Stoichiometry    C7H9ClN2O2
 Framework group  C1[X(C7H9ClN2O2)]
 Deg. of freedom    57
 Full point group                 C1      NOp   1
 Largest Abelian subgroup         C1      NOp   1
 Largest concise Abelian subgroup C1      NOp   1
                         Standard orientation:                         
 ---------------------------------------------------------------------
 Center     Atomic      Atomic             Coordinates (Angstroms)
 Number     Number       Type             X           Y           Z
 ---------------------------------------------------------------------
      1         17           0        5.350451    0.294633   -0.264924
      2          8           0       -4.388163    1.130277   -0.032537
      3          1           0       -5.358036    1.095167   -0.083925
      4          8           0       -4.434760   -1.145563   -0.170135
      5          7           0        1.905306    0.213861    0.074413
      6          1           0        2.327092    1.082256    0.387949
      7          7           0        2.738900   -0.914594    0.438541
      8          1           0        2.518932   -1.342081    1.354581
      9          1           0        3.723449   -0.535850    0.447471
     10          1           0        2.715815   -1.613335   -0.314101
     11          6           0       -3.775318   -0.098601   -0.075703
     12          6           0       -2.303942   -0.003339   -0.019227
     13          6           0       -1.643034    1.233203    0.089009
     14          1           0       -2.228769    2.152323    0.136391
     15          6           0       -0.252684    1.289234    0.142193
     16          1           0        0.254521    2.253742    0.225464
     17          6           0        0.496633    0.099246    0.080356
     18          6           0       -0.158269   -1.141467   -0.032059
     19          1           0        0.384624   -2.087227   -0.096623
     20          6           0       -1.553790   -1.186156   -0.077194
     21          1           0       -2.078946   -2.139063   -0.167050
 ---------------------------------------------------------------------
 Rotational constants (GHZ):      3.1159227      0.2339561      0.2192493
 Standard basis: 6-311G (5D, 7F)
 There are   191 symmetry adapted basis functions of A   symmetry.
 Integral buffers will be    131072 words long.
 Raffenetti 2 integral format.
 Two-electron integral symmetry is turned on.
   191 basis functions,   374 primitive gaussians,   191 cartesian basis functions
    49 alpha electrons       49 beta electrons
       nuclear repulsion energy       713.3496381672 Hartrees.
 NAtoms=   21 NActive=   21 NUniq=   21 SFac= 1.00D+00 NAtFMM=   60 NAOKFM=F Big=F
 One-electron integrals computed using PRISM.
 NBasis=   191 RedAO= T  NBF=   191
 NBsUse=   191 1.00D-06 NBFU=   191
 Initial guess read from the read-write file.
 B after Tr=     0.000000    0.000000    0.000000
         Rot=    1.000000    0.000000    0.000000    0.000000 Ang=   0.00 deg.
 Initial guess orbital symmetries:
       Occupied  (A) (A) (A) (A) (A) (A) (A) (A) (A) (A) (A) (A)
                 (A) (A) (A) (A) (A) (A) (A) (A) (A) (A) (A) (A)
                 (A) (A) (A) (A) (A) (A) (A) (A) (A) (A) (A) (A)
                 (A) (A) (A) (A) (A) (A) (A) (A) (A) (A) (A) (A)
                 (A)
       Virtual   (A) (A) (A) (A) (A) (A) (A) (A) (A) (A) (A) (A)
                 (A) (A) (A) (A) (A) (A) (A) (A) (A) (A) (A) (A)
                 (A) (A) (A) (A) (A) (A) (A) (A) (A) (A) (A) (A)
                 (A) (A) (A) (A) (A) (A) (A) (A) (A) (A) (A) (A)
                 (A) (A) (A) (A) (A) (A) (A) (A) (A) (A) (A) (A)
                 (A) (A) (A) (A) (A) (A) (A) (A) (A) (A) (A) (A)
                 (A) (A) (A) (A) (A) (A) (A) (A) (A) (A) (A) (A)
                 (A) (A) (A) (A) (A) (A) (A) (A) (A) (A) (A) (A)
[...]
 080402,0.36504384,0.00217656,-0.00016963,-0.00265623,0.00004116,0.0001
 0177,0.00024889,-0.00001441,-0.00002085,-0.00002205,-0.00003535,-0.000
 01234,0.00016113,0.00243357,-0.03620390,-0.00960930,0.00077096,-0.0007
 5202,-0.00214518,-0.01590214,0.01890196,-0.04236267,0.00500021,-0.0010
 3230,-0.00016064,-0.01029845,0.01641593,0.00489084,0.01378892,0.005206
 42,0.04945122,-0.00000638,0.00003189,-0.00011780,-0.08883666,-0.051689
 51,-0.04410783,0.00397531,0.00308723,0.00455221,-0.19821711,-0.2005894
 1,0.10008599,-0.00033670,0.00052831,-0.00078574,0.00001961,-0.00011815
 ,0.00002894,-0.00020988,0.00048458,-0.00001869,0.00008299,-0.00006476,
 -0.00007507,-0.00005680,-0.00008526,0.00019049,0.00005438,-0.00009941,
 0.00017452,0.36471953,0.00004653,0.00005229,-0.00023655,-0.05237060,-0
 .13340851,-0.06492474,0.00392198,0.00772226,0.00806662,-0.20061932,-0.
 38183279,0.15705712,0.00056023,0.00023238,-0.00153398,-0.00013864,-0.0
 0011864,0.00005809,0.00053431,0.00029886,-0.00007756,-0.00009025,-0.00
 003702,0.00016966,-0.00011690,-0.00019416,0.00039665,-0.00009021,-0.00
 000241,0.00000765,0.26740233,0.60610809,-0.00070256,-0.00113578,0.0021
 8662,-0.01692294,-0.02312191,-0.17029389,-0.02876670,-0.04316862,-0.04
 068028,0.10127997,0.15889317,-0.19525338,-0.00205870,-0.00349116,0.012
 33452,0.00084585,0.00131414,-0.00044603,-0.00200373,-0.00313004,0.0014
 2395,0.00031519,0.00062721,-0.00036201,0.00145359,0.00233897,-0.004145
 06,0.00043474,0.00055030,-0.00036803,-0.06932323,-0.11833323,0.6603166
 3,0.00001979,0.00002438,0.00007663,0.00645018,-0.00152795,-0.02073722,
 0.00197593,-0.00523174,-0.00251931,0.00823007,-0.01555395,0.02494716,0
 .00040401,0.00179681,0.00216767,0.00028565,0.00017270,-0.00029554,0.00
 038461,0.00082283,0.00014889,-0.00018977,-0.00002014,0.00050475,0.0000
 1594,-0.00000880,-0.00007377,0.00010624,-0.00013817,0.00068167,-0.0840
 0555,-0.01351497,0.01223865,0.30835438,0.00001363,0.00001974,0.0001562
 4,-0.00189523,0.00563707,-0.03072601,-0.00527737,-0.00260065,-0.003801
 90,-0.01532138,-0.00660842,0.03939815,0.00178828,0.00185845,0.00365544
 ,0.00018451,0.00047348,-0.00046259,0.00077800,0.00103784,0.00022193,-0
 .00024220,0.00003981,0.00096714,0.00001428,0.00004955,-0.00018883,0.00
 013316,-0.00025273,0.00084282,-0.01335401,-0.09650892,0.02228706,0.249
 84845,0.52991031,0.00050549,0.00081572,-0.00153049,-0.00607606,-0.0081
 8126,-0.03860342,-0.00069768,-0.00100075,0.00254188,0.01566382,0.02512
 296,-0.02343192,0.00250892,0.00417988,-0.01365914,-0.00076712,-0.00118
 765,0.00050345,0.00193916,0.00297490,0.00012755,-0.00040622,-0.0005962
 5,0.00028946,-0.00099486,-0.00160522,0.00303220,-0.00037422,-0.0006182
 4,0.00028599,0.00581285,0.01240600,-0.21382702,0.00882414,0.00063310,0
 .66208997,0.00015452,0.00019571,-0.00026703,-0.00100929,-0.00283278,-0
 .00111457,-0.00044227,-0.00006525,-0.00000376,0.00391223,0.00065963,-0
 .00366841,0.00031947,-0.00516490,-0.00143713,-0.00080891,-0.00005968,-
 0.00012043,0.00142802,-0.00163643,-0.00201628,0.00039079,0.00023405,0.
 00007882,-0.00034454,-0.00045153,0.00053685,-0.00024657,-0.00000347,-0
 .00077312,-0.00125113,0.00047327,0.01087000,-0.13170800,-0.10010236,0.
 04016645,0.31231414,0.00019037,0.00033493,-0.00042330,-0.00290030,-0.0
 0356818,-0.00162036,-0.00007121,-0.00050852,-0.00003006,0.00059103,0.0
 0458890,-0.00546922,-0.00518559,-0.00421259,-0.00238253,-0.00007717,-0
 .00088203,-0.00019005,-0.00170196,-0.00001648,-0.00301488,0.00026202,-
 0.00013406,-0.00084542,-0.00044207,-0.00076060,0.00084505,-0.00005046,
 0.00049316,-0.00027953,0.00026497,-0.00175763,0.01712740,-0.09945419,-
 0.22178905,0.06357296,0.25098674,0.53369324,-0.00005374,-0.00009534,0.
 00053810,0.00158046,0.00252386,-0.00288340,0.00023415,0.00033576,0.000
 56969,-0.00093057,-0.00125919,-0.00331252,-0.00061248,-0.00111434,0.01
 059043,0.00057957,0.00088635,-0.00057546,0.00059758,0.00100445,-0.0008
 9093,-0.00008760,0.00009358,0.00114125,0.00015926,0.00026443,-0.000839
 22,0.00015210,-0.00005170,0.00115138,0.01918440,0.02991253,-0.01819780
 ,0.01429448,0.02378926,-0.13945102,0.03118623,0.03346311,0.72706761,-0
 .00001765,0.00000556,-0.00000592,0.00038036,0.00067899,-0.00001497,0.0
 0018008,0.00046130,-0.00002027,0.00067198,0.00019285,0.00020326,0.0002
 1940,0.00012063,-0.00010995,0.00008145,-0.00006080,-0.00001002,-0.0002
 6598,0.00024054,0.00016426,-0.00000739,-0.00003560,-0.00006736,0.00000
 587,0.00001137,0.00001040,0.00002099,0.00000500,0.00007593,-0.00322881
 ,0.00045466,-0.00141055,-0.00239757,-0.00977301,-0.01117443,-0.0994466
 1,-0.08621175,-0.07775584,0.09296686,0.00000390,-0.00001498,-0.0000077
 3,0.00066785,0.00096474,0.00005025,0.00046418,0.00059515,-0.00003799,0
 .00020854,0.00085579,0.00032462,0.00013344,0.00035196,-0.00016069,-0.0
 0006009,0.00002903,-0.00001132,0.00024354,-0.00005708,0.00025916,-0.00
 000614,0.00000671,0.00005342,0.00001465,0.00002056,0.00001121,-0.00002
 402,-0.00002007,-0.00003977,0.00040615,-0.00281944,-0.00229639,-0.0101
 9959,-0.01110945,-0.01734785,-0.08618141,-0.17172669,-0.11619088,0.097
 51083,0.17502975,0.00006029,0.00009408,-0.00007595,0.00043027,0.000734
 90,-0.00298569,-0.00013554,-0.00021524,0.00015288,-0.00042308,-0.00063
 852,0.00006201,-0.00062131,-0.00094703,-0.00019168,-0.00003836,-0.0000
 5492,-0.00004163,0.00004456,0.00007511,-0.00068793,0.00001809,-0.00002
 102,0.00000805,-0.00012072,-0.00019041,0.00018911,-0.00002721,0.000007
 47,0.00000645,0.00052598,0.00068146,0.00158181,0.00585344,0.00883613,0
 .01071783,-0.07896779,-0.11805442,-0.17685711,0.08332557,0.12417122,0.
 18625884,-0.00008845,-0.00024699,-0.00010825,-0.00029702,0.00025656,-0
 .00071392,0.00015065,0.00021101,0.00011276,-0.00052852,0.00126321,0.00
 054049,0.00955197,0.00146015,-0.00466939,-0.00059363,0.00161319,0.0013
 7166,0.00215067,-0.00131070,0.00401916,-0.00015562,0.00007195,0.000139
 13,0.00041298,0.00033665,-0.00001904,-0.00040180,0.00006338,-0.0009048
 2,0.00293065,-0.00627634,0.00127335,0.01013659,0.00060873,0.01864522,-
 0.08400138,-0.03472330,0.03409166,0.00588470,0.00203614,-0.01336114,0.
 30266348,-0.00026683,-0.00033324,-0.00012524,0.00027183,-0.00000745,-0
 .00107002,0.00020915,0.00032908,0.00016476,0.00123496,0.00051786,0.000
 89231,0.00183228,0.01163757,-0.00565736,0.00167584,0.00086117,0.002025
 74,-0.00121914,0.00090304,0.00638037,0.00013979,-0.00031752,-0.0008923
 1,0.00037516,0.00077384,-0.00010321,-0.00002012,-0.00010383,-0.0002082
 0,-0.00625618,-0.00267526,0.00185775,0.00008829,0.00883692,0.02936859,
 -0.03395497,-0.11568393,0.05967767,0.00159710,0.00773657,-0.02005315,0
 .26406466,0.53845046,0.00068378,0.00109269,-0.00157107,-0.00132324,-0.
 00200698,-0.00156143,0.00018682,0.00027865,0.00035599,0.00166848,0.002
 62686,-0.00380173,-0.01951822,-0.02849089,-0.05210954,-0.00112923,-0.0
 0181967,0.00166335,0.00036433,0.00076026,-0.00504382,0.00040313,-0.000
 37907,-0.00186781,-0.00155588,-0.00246648,0.00314644,-0.00054389,0.000
 23956,-0.00183528,0.00046883,0.00062061,0.01099569,0.03941940,0.061313
 43,-0.01841042,0.00342590,0.01252252,-0.35153722,0.00416255,0.00689337
 ,-0.01487966,-0.02002757,-0.04514153,0.70385954,-0.00002779,0.00010119
 ,0.00002796,0.00000773,0.00007669,0.00013748,0.00001705,-0.00002580,-0
 .00000986,-0.00031707,0.00014353,0.00013712,-0.00170045,0.00192053,0.0
 0056538,0.00056639,-0.00059422,-0.00099072,-0.00051190,0.00070851,-0.0
 0024199,-0.00005255,-0.00016191,-0.00006634,-0.00002596,-0.00009886,0.
 00004249,0.00014316,0.00018496,0.00029488,0.00058000,-0.00045823,-0.00
 034592,0.00587446,-0.00257606,0.00004747,0.00218910,-0.00163631,-0.000
 91694,-0.00302623,0.00262859,0.00021535,-0.11469350,-0.12262464,0.0466
 1818,0.11154724,0.00010202,0.00006188,0.00003803,0.00008432,0.00007984
 ,0.00021743,-0.00002660,-0.00000656,-0.00001459,0.00014365,-0.00019730
 ,0.00022109,0.00194995,0.00002104,0.00074981,-0.00062393,0.00004685,-0
 .00148694,0.00069653,0.00011251,-0.00040611,0.00010489,0.00014746,0.00
 029114,-0.00009878,-0.00011601,0.00007006,-0.00007754,-0.00004224,0.00
 005712,-0.00048819,0.00014626,-0.00053143,-0.00256401,0.00359656,0.000
 38730,-0.00209872,0.00006964,-0.00114602,0.00263768,-0.00068780,0.0001
 8449,-0.12262886,-0.22610660,0.07308839,0.13579803,0.23485054,-0.00000
 522,-0.00001299,0.00010396,-0.00016730,-0.00025124,-0.00028479,0.00002
 236,0.00003495,0.00001092,0.00013248,0.00021396,-0.00082114,-0.0006062
 3,-0.00105181,0.00181390,0.00019279,0.00033297,-0.00048552,0.00023666,
 0.00032991,0.00038843,0.00002647,0.00004762,0.00010215,0.00003917,0.00
 006496,-0.00015092,0.00003071,0.00003714,0.00009614,0.00084989,0.00130
 739,0.00086380,-0.00043402,-0.00035312,-0.00499591,0.01753921,0.027234
 13,-0.00726561,-0.00014720,-0.00037301,0.00111503,0.04679175,0.0733554
 2,-0.09172189,-0.05021151,-0.07900443,0.09565098,0.00071284,0.00147786
 ,-0.00076296,-0.00019853,-0.00025609,-0.00114754,0.00010312,-0.0000808
 5,0.00009372,0.00043097,0.00039958,0.00026758,-0.06673275,-0.04778191,
 0.02698360,-0.00154320,0.00285701,0.01638537,-0.00300906,0.00432501,-0
 .02190953,0.00007833,-0.00034773,-0.00410447,-0.00176792,-0.00355659,0
 .00195906,0.00000732,0.00108332,0.00170730,-0.00184785,-0.00183663,0.0
 0161380,-0.02392645,-0.02522075,-0.00833801,0.01709566,0.02205118,-0.0
 3236962,0.00614713,-0.00370588,0.00091559,-0.12203988,-0.07688494,-0.0
 2665376,-0.00255869,-0.01033655,-0.01191038,0.32159543,0.00147744,0.00
 206811,-0.00127626,-0.00032359,-0.00046468,-0.00184444,-0.00007570,0.0
 0003377,0.00015939,0.00046062,0.00086712,0.00031686,-0.04755833,-0.110
 43472,0.04798068,0.00326103,0.00071472,0.02525576,0.00379902,0.0012079
 1,-0.03315517,0.00116687,0.00027092,-0.00007250,-0.00354208,-0.0050133
 6,0.00318089,-0.00052018,0.00046744,-0.00382371,-0.00181094,-0.0035338
 2,0.00276852,-0.02523080,-0.04585445,-0.01327021,0.02151648,0.03758100
 ,-0.04837250,-0.00371587,0.00278507,0.00172322,-0.07608997,-0.18764961
 ,-0.03837520,-0.01080669,-0.01179890,-0.01842123,0.24245865,0.53701633
 ,-0.00074621,-0.00125051,0.00387611,0.00154703,0.00229905,0.00317443,-
 0.00011183,-0.00015670,-0.00045534,-0.00216909,-0.00343005,0.00394315,
 0.01807926,0.03429154,-0.29506388,0.00024071,0.00042768,-0.00600967,-0
 .00091136,-0.00086667,-0.02682987,-0.00037120,0.00140581,0.00407901,0.
 00137865,0.00228836,-0.00620663,0.00152120,0.00015241,0.00395336,0.000
 58834,0.00119169,-0.01213552,-0.00793628,-0.01265254,0.01052400,-0.011
 02869,-0.01555623,-0.05270668,0.00131468,0.00233690,-0.00404396,-0.058
 38436,-0.08716768,-0.17581607,0.00686006,0.01044233,0.00860808,0.00125
 438,-0.01126383,0.69044478,-0.00019734,-0.00040775,0.00063440,0.000519
 70,0.00113853,0.00021579,-0.00047398,0.00000207,-0.00042654,-0.0006954
 9,-0.00013003,0.00124174,0.00385595,-0.00727087,0.01008230,0.00192544,
 0.00012022,-0.00134156,-0.00075811,-0.00053062,0.00061687,-0.00075467,
 0.00081884,0.00057921,0.00026461,0.00062650,-0.00152902,0.00049763,0.0
 0008273,-0.00052780,0.00379464,-0.00467625,-0.00453198,0.01848273,0.01
 279015,-0.00742152,-0.01009805,-0.00857016,0.01263533,-0.00041172,0.00
 043909,0.00037983,-0.00773151,-0.02470915,-0.01618649,0.00313563,-0.00
 300989,-0.00162875,-0.13293164,-0.09744874,0.03709541,0.29488202,-0.00
 039671,-0.00057787,0.00101045,0.00115771,0.00154578,0.00040921,-0.0000
 0918,-0.00046561,-0.00067428,-0.00014803,-0.00090675,0.00191477,-0.007
 72501,-0.00387092,0.01646690,0.00011944,0.00210039,-0.00190417,-0.0006
 2642,-0.00140754,0.00084183,-0.00045862,0.00091439,-0.00032718,0.00059
 543,0.00085784,-0.00239938,0.00138460,-0.00033522,0.00034942,-0.004685
 89,-0.00012050,-0.00700845,0.01333586,0.03104034,-0.00988440,-0.008669
 54,-0.01856791,0.02019875,0.00043801,-0.00004434,0.00057579,-0.0251001
 3,-0.02934495,-0.02598019,-0.00299988,0.00056461,-0.00231611,-0.096628
 86,-0.22022571,0.05883954,0.25472094,0.51978731,0.00019387,0.00033303,
 -0.00133574,-0.00054993,-0.00076829,-0.00331239,0.00002255,0.00001631,
 0.00026512,0.00195973,0.00301882,-0.00084320,0.02819829,0.04432394,-0.
 03001889,-0.00130960,-0.00185517,-0.00446519,0.00444204,0.00672390,0.0
 0383655,-0.00108836,-0.00032973,0.00071286,-0.00028885,-0.00049234,0.0
 0180477,0.00016538,-0.00114629,0.00071012,-0.00414633,-0.00641530,0.00
 848523,-0.02920381,-0.04337943,-0.05069268,0.01660213,0.02629861,-0.03
 543654,0.00042263,0.00064160,-0.00037284,-0.00058012,-0.00198212,0.052
 11163,-0.00202802,-0.00293009,-0.00240275,0.00437549,0.00852589,-0.141
 90984,0.02740270,0.02743320,0.71570566,0.00015588,0.00031004,-0.000357
 49,-0.00018498,0.00007982,-0.00003123,-0.00006164,0.00006397,0.0000269
 9,-0.00000523,0.00004377,-0.00012235,-0.00228975,0.00123154,-0.0005173
 0,-0.00007046,0.00008254,0.00001752,-0.00021706,0.00140838,-0.00108103
 ,0.00089697,-0.00005646,-0.00049328,-0.00029732,-0.00041994,0.00085620
 ,-0.00019780,-0.00020620,0.00169288,0.00076284,-0.00039694,0.00024409,
 0.00533985,-0.00263654,0.00078380,-0.00028280,0.00013568,0.00059778,-0
 .00068441,0.00043678,-0.00002524,0.00253266,-0.00398785,0.00182406,-0.
 00016182,-0.00047066,-0.00054427,-0.00259985,-0.00953405,-0.01198650,-
 0.09339036,-0.09062013,-0.07434014,0.08968885,0.00030250,0.00043912,-0
 .00055331,0.00007952,-0.00011328,-0.00003269,0.00006572,-0.00000364,0.
 00004064,0.00003468,0.00002617,-0.00018123,0.00123241,-0.00116481,-0.0
 0089047,0.00008300,0.00000272,0.00002011,0.00136556,0.00102584,-0.0016
 5011,0.00031630,-0.00034702,0.00164797,-0.00040350,-0.00069168,0.00131
 838,-0.00055629,0.00078080,0.00025209,-0.00036695,0.00044305,0.0003870
 1,-0.00265036,0.00292882,0.00149115,0.00013849,-0.00019087,0.00092026,
 0.00043739,-0.00029388,-0.00006307,-0.00397156,-0.00108446,0.00293942,
 -0.00049125,-0.00058123,-0.00084068,-0.00998638,-0.01109545,-0.0185659
 6,-0.09062329,-0.16981842,-0.11102944,0.10018597,0.17429124,-0.0000569
 5,-0.00009117,0.00010315,-0.00001933,-0.00001439,-0.00084834,-0.000042
 98,-0.00006696,-0.00006918,0.00024042,0.00037660,-0.00030753,-0.000552
 00,-0.00094383,0.00070951,-0.00000127,-0.00000880,0.00014934,0.0006287
 0,0.00097894,-0.00160174,0.00021774,0.00020214,-0.00066406,0.00020017,
 0.00030960,-0.00010935,0.00007756,0.00030735,-0.00069711,-0.00095299,-
 0.00145375,0.00055082,0.00133565,0.00233975,-0.00436971,0.00048532,0.0
 0074731,-0.00042199,-0.00004957,-0.00010048,0.00000034,0.00117333,0.00
 193878,-0.00027342,0.00027774,0.00042334,0.00030314,0.00606950,0.00919
 911,0.00914629,-0.07421570,-0.11083818,-0.16434094,0.08026260,0.119532
 24,0.17844330,0.00004247,0.00010247,-0.00001634,0.00186159,-0.00015893
 ,0.00352307,0.00073699,-0.00008982,0.00028961,-0.00179236,-0.00340920,
 0.00166885,0.00109249,-0.00651938,-0.00162209,0.00090734,-0.00059321,0
 .00085673,0.00057202,-0.00016419,-0.00091677,-0.00022473,-0.00016486,0
 .00051792,-0.00000780,-0.00013155,0.00021566,-0.00037266,0.00048159,-0
 .00040016,0.00466940,0.00697804,-0.00544694,-0.12206075,-0.07837628,-0
 .06437645,-0.01182964,-0.02997219,-0.00053181,0.00292466,-0.00443412,0
 .00163969,-0.00538610,-0.00226177,-0.01200931,-0.00034573,0.00053046,-
 0.00026911,0.00683741,0.00556112,0.02427144,-0.08375464,-0.03241982,0.
 03130780,0.00398014,0.00225101,-0.01534470,0.32287952,0.00010963,0.000
 14580,-0.00004477,-0.00012165,0.00158280,0.00549656,-0.00006408,0.0006
 7974,0.00049538,-0.00323894,-0.00464664,0.00253738,-0.00645332,-0.0045
 0151,-0.00253007,-0.00057815,0.00035666,0.00133905,-0.00014104,0.00051
 120,-0.00137203,0.00052077,-0.00022958,-0.00019770,-0.00013969,-0.0001
 4996,0.00037451,-0.00021410,-0.00010952,0.00041288,0.00712088,0.011352
 43,-0.00727906,-0.07903170,-0.18916770,-0.09592768,-0.02949443,-0.0376
 3513,-0.00193572,-0.00443504,-0.00110538,0.00267833,-0.00233306,-0.006
 87421,-0.01728339,0.00053502,0.00014659,-0.00040659,0.00502111,0.00960
 237,0.03768500,-0.03166057,-0.11324712,0.05511277,0.00178402,0.0060883
 9,-0.02310272,0.26355839,0.55783572,-0.00030212,-0.00048422,0.00076005
 ,0.00203472,0.00320792,-0.00124892,-0.00073821,-0.00108512,-0.00120745
 ,-0.00512729,-0.00791318,0.00154924,-0.00425665,-0.00658112,0.00678894
 ,0.00025353,0.00041144,0.00041362,-0.00184121,-0.00279353,-0.00081284,
 0.00065491,0.00016411,-0.00109767,0.00054096,0.00087475,-0.00163834,-0
 .00013530,0.00066901,-0.00106978,-0.01114804,-0.01604574,-0.04355998,-
 0.03821552,-0.05569969,-0.19238542,-0.01960123,-0.03125903,0.05229341,
 0.00167620,0.00273447,-0.00048352,-0.00916269,-0.01290607,-0.05095937,
 -0.00045119,-0.00068656,-0.00097484,0.04582659,0.07083052,-0.01163917,
 0.00100106,0.00850971,-0.34140888,0.00329519,0.00556006,-0.01691320,-0
 .01334915,-0.03421164,0.69793267,-0.00001582,0.00000070,0.00001402,0.0
 0021509,0.00032089,0.00001584,0.00014976,-0.00012230,-0.00008401,0.000
 42438,0.00139365,0.00063717,-0.00005519,0.00000697,0.00005468,-0.00014
 156,0.00012859,-0.00002611,0.00006063,-0.00008971,0.00001402,0.0000211
 6,0.00000009,-0.00001364,0.00001900,0.00000880,-0.00002426,0.00002408,
 -0.00000617,0.00001767,-0.00359248,0.00021392,0.00094404,-0.00177235,-
 0.01138398,0.00572926,0.00366523,-0.00348533,-0.00203440,0.00000291,-0
 .00058243,0.00031175,-0.00049696,0.00069655,-0.00027788,-0.00063907,0.
 00037620,0.00006249,0.00614759,-0.00304430,-0.00050564,0.00383916,-0.0
 0126376,-0.00155746,-0.00291374,0.00255702,0.00026676,-0.12072961,-0.1
 2074406,0.04904544,0.11578778,0.00000132,-0.00001502,0.00002224,0.0003
 0096,0.00046880,0.00000590,-0.00012349,0.00004379,-0.00012033,0.001387
 66,0.00161699,0.00097938,-0.00001440,-0.00008491,0.00008630,0.00012855
 ,-0.00002616,-0.00003709,-0.00009027,-0.00002063,0.00002223,-0.0000068
 0,0.00002071,0.00001470,0.00000821,0.00002725,-0.00003763,0.00000063,0
 .00001871,-0.00000582,0.00028233,-0.00334652,0.00134454,-0.01096295,-0
 .01153752,0.00866695,-0.00348888,0.00067279,-0.00290433,-0.00055986,-0
 .00049622,0.00047559,0.00069528,0.00013456,-0.00043236,0.00037681,-0.0
 0030714,0.00007276,-0.00305055,0.00345597,-0.00045013,-0.00170173,0.00
 212221,-0.00209985,0.00256626,-0.00064141,0.00026510,-0.12076777,-0.23
 063495,0.07670389,0.13501868,0.23852870,-0.00001107,-0.00001635,-0.000
 04359,0.00081103,0.00122870,0.00074235,-0.00003659,-0.00004741,-0.0001
 2244,0.00087601,0.00134665,-0.00047626,0.00090783,0.00139823,-0.000149
 54,-0.00002445,-0.00003454,-0.00034729,0.00003640,0.00005666,0.0000915
 8,-0.00000909,0.00001515,-0.00002831,-0.00000101,-0.00000187,0.0000266
 7,0.00001635,-0.00000131,-0.00002924,-0.00178672,-0.00285462,0.0005299
 2,-0.01107707,-0.01717636,0.01124481,-0.00189246,-0.00268606,-0.002976
 38,-0.00058941,-0.00091012,0.00052764,-0.00022724,-0.00035447,-0.00074
 391,0.00003836,0.00003566,0.00004683,-0.00025570,-0.00006580,-0.004932
 59,0.01592474,0.02478276,-0.00709205,-0.00010226,-0.00030236,0.0012106
 6,0.04999207,0.07815952,-0.09433855,-0.05258972,-0.08257205,0.09685969
 \\-0.00000024,-0.00000045,-0.00000004,-0.00000006,-0.00000012,-0.00000
 011,0.00000027,0.00000047,-0.00000079,-0.00000010,-0.00000013,0.000000
 05,-0.00000008,0.00000020,-0.00000024,-0.00000045,-0.00000109,0.000000
 35,0.00000211,0.00000081,0.00000016,-0.00000161,-0.00000035,0.,-0.0000
 0074,-0.00000057,0.00000018,-0.00000018,-0.00000065,-0.00000004,0.0000
 0086,0.00000125,0.00000059,-0.00000026,-0.00000048,0.00000026,0.000000
 17,0.00000057,-0.00000088,0.00000012,0.00000012,-0.00000017,0.00000022
 ,-0.00000009,0.00000109,-0.00000005,0.00000007,-0.00000034,-0.00000023
 ,0.00000028,-0.00000100,0.00000004,-0.00000004,0.00000023,-0.00000003,
 -0.00000010,0.00000022,0.00000022,0.00000029,0.00000038,0.00000001,0.0
 0000003,0.00000009\\\@


 THOSE WHO TRY TO PASS CHEMISTRY OFF AS A NEW SCIENCE
 SHOW HOW LITTLE KNOWLEDGE THEY HAVE OF THE CHARACTER
 AND LITERATURE OF THE ANCIENTS.
   -- NICOLAS LEFEVRE
 "COURS DE CHYMIE" J.-N.LELOUP, PARIS, 1751
 Job cpu time:  0 days  0 hours  7 minutes  7.6 seconds.
 File lengths (MBytes):  RWF=    108 Int=      0 D2E=      0 Chk=      5 Scr=      1
 Normal termination of Gaussian 09 at Sun Jul 26 17:22:45 2015.
mv: cannot stat `/state/partition1//66002.1.mono/*.chk': No such file or directory
